       N       E                     dE             d eps       ncg     rms          rms(c)
DAV:   1     0.165515732020E+05    0.16552E+05   -0.74204E+05  1992   0.127E+03
DAV:   2    -0.353299875155E+03   -0.16905E+05   -0.16384E+05  2664   0.354E+02
DAV:   3    -0.255420082223E+04   -0.22009E+04   -0.21921E+04  2136   0.144E+02
DAV:   4    -0.261695329525E+04   -0.62752E+02   -0.62588E+02  2232   0.260E+01
DAV:   5    -0.261862110961E+04   -0.16678E+01   -0.16662E+01  2196   0.391E+00    0.140E+02
DAV:   6    -0.231316310529E+04    0.30546E+03   -0.13306E+03  2124   0.350E+01    0.653E+01
DAV:   7    -0.231253494126E+04    0.62816E+00   -0.40208E+01  2460   0.565E+00    0.243E+01
DAV:   8    -0.231195792361E+04    0.57702E+00   -0.21648E+00  2196   0.196E+00    0.979E+00
DAV:   9    -0.231198544325E+04   -0.27520E-01   -0.10767E+00  2196   0.131E+00    0.168E+00
DAV:  10    -0.231202777540E+04   -0.42332E-01   -0.11937E-01  2100   0.430E-01    0.729E-01
DAV:  11    -0.231203574761E+04   -0.79722E-02   -0.25203E-02  2124   0.237E-01    0.294E-01
DAV:  12    -0.231204926194E+04   -0.13514E-01   -0.14913E-02  2172   0.172E-01    0.190E-01
DAV:  13    -0.231206037517E+04   -0.11113E-01   -0.45974E-03  2100   0.896E-02    0.180E-01
DAV:  14    -0.231206652890E+04   -0.61537E-02   -0.38440E-03  2112   0.858E-02    0.610E-02
DAV:  15    -0.231206800400E+04   -0.14751E-02   -0.18596E-03  2088   0.621E-02    0.564E-02
DAV:  16    -0.231206843181E+04   -0.42781E-03   -0.34270E-04  2160   0.234E-02    0.400E-02
DAV:  17    -0.231206858727E+04   -0.15546E-03   -0.54618E-05  2136   0.900E-03    0.237E-02
DAV:  18    -0.231206890791E+04   -0.32063E-03   -0.81316E-05  2064   0.111E-02    0.996E-03
DAV:  19    -0.231206899100E+04   -0.83095E-04   -0.13571E-05  2232   0.627E-03    0.844E-03
DAV:  20    -0.231206902940E+04   -0.38396E-04   -0.84773E-06  2148   0.423E-03    0.389E-03
DAV:  21    -0.231206904886E+04   -0.19462E-04   -0.13566E-06  1464   0.175E-03    0.235E-03
DAV:  22    -0.231206905939E+04   -0.10533E-04   -0.21360E-06  1632   0.232E-03    0.220E-03
DAV:  23    -0.231206906042E+04   -0.10308E-05   -0.69683E-07  1392   0.164E-03    0.160E-03
DAV:  24    -0.231206906057E+04   -0.14747E-06   -0.48796E-07  1416   0.955E-04
   1 F= -.23343669E+04 E0= -.23343669E+04  d E =-.168570E-11
       N       E                     dE             d eps       ncg     rms          rms(c)
DAV:   1    -0.231206772220E+04    0.13382E-02   -0.81359E-02  2064   0.123E-01    0.103E-01
DAV:   2    -0.231206766833E+04    0.53874E-04   -0.84354E-04  1848   0.130E-02    0.600E-02
DAV:   3    -0.231206764325E+04    0.25079E-04   -0.18766E-04  1764   0.628E-03    0.172E-02
DAV:   4    -0.231206764374E+04   -0.49800E-06   -0.18850E-05  1656   0.214E-03    0.704E-03
DAV:   5    -0.231206764355E+04    0.19214E-06   -0.32253E-06  1536   0.106E-03
   2 F= -.23343656E+04 E0= -.23343656E+04  d E =-.301013E-11
       N       E                     dE             d eps       ncg     rms          rms(c)
DAV:   1    -0.231206816783E+04   -0.52408E-03   -0.32738E-01  2016   0.249E-01    0.208E-01
DAV:   2    -0.231206794018E+04    0.22764E-03   -0.32685E-03  1932   0.254E-02    0.120E-01
DAV:   3    -0.231206785353E+04    0.86658E-04   -0.74025E-04  1908   0.121E-02    0.341E-02
DAV:   4    -0.231206785816E+04   -0.46357E-05   -0.74739E-05  1704   0.409E-03    0.136E-02
DAV:   5    -0.231206785870E+04   -0.53478E-06   -0.12294E-05  1596   0.195E-03    0.346E-03
DAV:   6    -0.231206785865E+04    0.44354E-07   -0.12447E-06  1536   0.817E-04
   3 F= -.23343656E+04 E0= -.23343656E+04  d E =-.572868E-11
       N       E                     dE             d eps       ncg     rms          rms(c)
DAV:   1    -0.231206884506E+04   -0.98636E-03   -0.16012E-01  2016   0.172E-01    0.142E-01
DAV:   2    -0.231206875651E+04    0.88549E-04   -0.14725E-03  1896   0.171E-02    0.835E-02
DAV:   3    -0.231206871501E+04    0.41498E-04   -0.33591E-04  1836   0.868E-03    0.218E-02
DAV:   4    -0.231206871597E+04   -0.95973E-06   -0.35783E-05  1716   0.301E-03    0.921E-03
DAV:   5    -0.231206871569E+04    0.28437E-06   -0.60297E-06  1584   0.156E-03
   4 F= -.23343666E+04 E0= -.23343666E+04  d E =-.771503E-11
       N       E                     dE             d eps       ncg     rms          rms(c)
DAV:   1    -0.231206880732E+04   -0.91347E-04   -0.30097E-01  1968   0.246E-01    0.176E-01
DAV:   2    -0.231206880578E+04    0.15445E-05   -0.18355E-03  1944   0.180E-02    0.106E-01
DAV:   3    -0.231206878111E+04    0.24667E-04   -0.32617E-04  1908   0.985E-03    0.122E-02
DAV:   4    -0.231206878008E+04    0.10308E-05   -0.37514E-05  1956   0.320E-03    0.827E-03
DAV:   5    -0.231206877888E+04    0.12034E-05   -0.70532E-06  1728   0.212E-03    0.208E-03
DAV:   6    -0.231206877887E+04    0.44529E-08   -0.97259E-07  1380   0.123E-03
   5 F= -.23343666E+04 E0= -.23343666E+04  d E =-.103889E-10
       N       E                     dE             d eps       ncg     rms          rms(c)
DAV:   1    -0.231206745256E+04    0.13263E-02   -0.16116E-01  2028   0.178E-01    0.157E-01
DAV:   2    -0.231206728256E+04    0.17000E-03   -0.15666E-03  1920   0.188E-02    0.891E-02
DAV:   3    -0.231206724165E+04    0.40909E-04   -0.30751E-04  1944   0.821E-03    0.295E-02
DAV:   4    -0.231206724194E+04   -0.28985E-06   -0.32527E-05  1728   0.348E-03    0.944E-03
DAV:   5    -0.231206724239E+04   -0.44447E-06   -0.45674E-06  1572   0.151E-03
   6 F= -.23343640E+04 E0= -.23343640E+04  d E =-.121048E-10
       N       E                     dE             d eps       ncg     rms          rms(c)
DAV:   1    -0.231206601630E+04    0.12256E-02   -0.34441E-01  2040   0.258E-01    0.271E-01
DAV:   2    -0.231206524830E+04    0.76800E-03   -0.59008E-03  1968   0.391E-02    0.155E-01
DAV:   3    -0.231206503891E+04    0.20939E-03   -0.12487E-03  2076   0.156E-02    0.601E-02
DAV:   4    -0.231206501768E+04    0.21227E-04   -0.12400E-04  1860   0.656E-03    0.210E-02
DAV:   5    -0.231206501646E+04    0.12195E-05   -0.21868E-05  1716   0.284E-03    0.680E-03
DAV:   6    -0.231206501553E+04    0.93272E-06   -0.50626E-06  1584   0.132E-03
   7 F= -.23343639E+04 E0= -.23343639E+04  d E =-.162298E-10
       N       E                     dE             d eps       ncg     rms          rms(c)
DAV:   1    -0.231206773174E+04   -0.27153E-02   -0.16366E-01  2040   0.184E-01    0.156E-01
DAV:   2    -0.231206765541E+04    0.76324E-04   -0.19460E-03  1908   0.201E-02    0.961E-02
DAV:   3    -0.231206757416E+04    0.81248E-04   -0.32053E-04  1836   0.856E-03    0.168E-02
DAV:   4    -0.231206757714E+04   -0.29797E-05   -0.48078E-05  1752   0.260E-03    0.735E-03
DAV:   5    -0.231206757677E+04    0.37270E-06   -0.33880E-06  1512   0.124E-03
   8 F= -.23343654E+04 E0= -.23343654E+04  d E =-.152716E-10
       N       E                     dE             d eps       ncg     rms          rms(c)
DAV:   1    -0.231206808573E+04   -0.50858E-03   -0.32594E-01  1956   0.251E-01    0.213E-01
DAV:   2    -0.231206781408E+04    0.27165E-03   -0.35347E-03  1884   0.271E-02    0.124E-01
DAV:   3    -0.231206771738E+04    0.96697E-04   -0.84451E-04  1872   0.131E-02    0.362E-02
DAV:   4    -0.231206772096E+04   -0.35765E-05   -0.87576E-05  1728   0.474E-03    0.148E-02
DAV:   5    -0.231206772153E+04   -0.57640E-06   -0.13840E-05  1656   0.219E-03    0.393E-03
DAV:   6    -0.231206772141E+04    0.11688E-06   -0.16868E-06  1536   0.944E-04
   9 F= -.23343656E+04 E0= -.23343656E+04  d E =-.207249E-10
       N       E                     dE             d eps       ncg     rms          rms(c)
DAV:   1    -0.231206884559E+04   -0.11241E-02   -0.15901E-01  1860   0.173E-01    0.144E-01
DAV:   2    -0.231206875010E+04    0.95486E-04   -0.15486E-03  1884   0.174E-02    0.841E-02
DAV:   3    -0.231206870700E+04    0.43095E-04   -0.35283E-04  1836   0.864E-03    0.225E-02
DAV:   4    -0.231206870754E+04   -0.53967E-06   -0.37415E-05  1716   0.311E-03    0.960E-03
DAV:   5    -0.231206870709E+04    0.45242E-06   -0.67505E-06  1620   0.166E-03
  10 F= -.23343666E+04 E0= -.23343666E+04  d E =-.206185E-10
       N       E                     dE             d eps       ncg     rms          rms(c)
DAV:   1    -0.231206886824E+04   -0.16069E-03   -0.29976E-01  1896   0.246E-01    0.174E-01
DAV:   2    -0.231206886579E+04    0.24443E-05   -0.16847E-03  1920   0.162E-02    0.105E-01
DAV:   3    -0.231206884210E+04    0.23693E-04   -0.30015E-04  1812   0.816E-03    0.116E-02
DAV:   4    -0.231206884073E+04    0.13694E-05   -0.36345E-05  1728   0.266E-03    0.790E-03
DAV:   5    -0.231206883942E+04    0.13081E-05   -0.64499E-06  1608   0.199E-03    0.176E-03
DAV:   6    -0.231206883944E+04   -0.19238E-07   -0.10569E-06  1428   0.109E-03
  11 F= -.23343667E+04 E0= -.23343667E+04  d E =-.223127E-10
       N       E                     dE             d eps       ncg     rms          rms(c)
DAV:   1    -0.231206635415E+04    0.24853E-02   -0.15839E-01  1956   0.179E-01    0.168E-01
DAV:   2    -0.231206607634E+04    0.27781E-03   -0.18035E-03  1908   0.206E-02    0.949E-02
DAV:   3    -0.231206600715E+04    0.69197E-04   -0.41791E-04  1848   0.902E-03    0.338E-02
DAV:   4    -0.231206600366E+04    0.34839E-05   -0.44988E-05  1776   0.371E-03    0.119E-02
DAV:   5    -0.231206600329E+04    0.37762E-06   -0.64987E-06  1572   0.167E-03
  12 F= -.23343643E+04 E0= -.23343643E+04  d E =-.210653E-10
       N       E                     dE             d eps       ncg     rms          rms(c)
DAV:   1    -0.231206763267E+04   -0.16290E-02   -0.33499E-01  1992   0.260E-01    0.275E-01
DAV:   2    -0.231206675945E+04    0.87322E-03   -0.54886E-03  1956   0.356E-02    0.154E-01
DAV:   3    -0.231206657031E+04    0.18914E-03   -0.10874E-03  1848   0.143E-02    0.603E-02
DAV:   4    -0.231206655774E+04    0.12573E-04   -0.11875E-04  1824   0.644E-03    0.186E-02
DAV:   5    -0.231206655799E+04   -0.24808E-06   -0.16881E-05  1704   0.277E-03    0.619E-03
DAV:   6    -0.231206655735E+04    0.63848E-06   -0.47694E-06  1560   0.137E-03
  13 F= -.23343640E+04 E0= -.23343640E+04  d E =-.245786E-10
       N       E                     dE             d eps       ncg     rms          rms(c)
DAV:   1    -0.231206816543E+04   -0.16074E-02   -0.16550E-01  2040   0.182E-01    0.177E-01
DAV:   2    -0.231206784122E+04    0.32421E-03   -0.27680E-03  1884   0.234E-02    0.979E-02
DAV:   3    -0.231206779033E+04    0.50897E-04   -0.32895E-04  1824   0.700E-03    0.444E-02
DAV:   4    -0.231206778238E+04    0.79446E-05   -0.43659E-05  1692   0.391E-03    0.104E-02
DAV:   5    -0.231206778226E+04    0.12459E-06   -0.79091E-06  1584   0.166E-03
  14 F= -.23343655E+04 E0= -.23343655E+04  d E =-.254638E-10
       N       E                     dE             d eps       ncg     rms          rms(c)
DAV:   1    -0.231206782473E+04   -0.42351E-04   -0.32759E-01  2004   0.240E-01    0.211E-01
DAV:   2    -0.231206756921E+04    0.25552E-03   -0.36626E-03  1872   0.271E-02    0.123E-01
DAV:   3    -0.231206746469E+04    0.10453E-03   -0.83942E-04  1908   0.127E-02    0.368E-02
DAV:   4    -0.231206746545E+04   -0.76459E-06   -0.81854E-05  1752   0.438E-03    0.146E-02
DAV:   5    -0.231206746556E+04   -0.10635E-06   -0.12641E-05  1608   0.190E-03    0.404E-03
DAV:   6    -0.231206746534E+04    0.21444E-06   -0.17497E-06  1548   0.847E-04
  15 F= -.23343654E+04 E0= -.23343654E+04  d E =-.246930E-10
       N       E                     dE             d eps       ncg     rms          rms(c)
DAV:   1    -0.231206908610E+04   -0.16205E-02   -0.15948E-01  1968   0.174E-01    0.140E-01
DAV:   2    -0.231206901362E+04    0.72482E-04   -0.15334E-03  1860   0.169E-02    0.827E-02
DAV:   3    -0.231206898012E+04    0.33497E-04   -0.33774E-04  1836   0.841E-03    0.214E-02
DAV:   4    -0.231206898166E+04   -0.15408E-05   -0.33973E-05  1632   0.296E-03    0.901E-03
DAV:   5    -0.231206898194E+04   -0.27430E-06   -0.58489E-06  1608   0.154E-03
  16 F= -.23343667E+04 E0= -.23343667E+04  d E =-.268293E-10
       N       E                     dE             d eps       ncg     rms          rms(c)
DAV:   1    -0.231206854816E+04    0.43351E-03   -0.29899E-01  1920   0.241E-01    0.174E-01
DAV:   2    -0.231206856950E+04   -0.21338E-04   -0.19561E-03  1932   0.170E-02    0.105E-01
DAV:   3    -0.231206854468E+04    0.24812E-04   -0.30914E-04  1800   0.879E-03    0.115E-02
DAV:   4    -0.231206854402E+04    0.66397E-06   -0.33355E-05  1752   0.277E-03    0.778E-03
DAV:   5    -0.231206854268E+04    0.13383E-05   -0.68454E-06  1644   0.216E-03    0.180E-03
DAV:   6    -0.231206854269E+04   -0.10972E-07   -0.11037E-06  1428   0.112E-03
  17 F= -.23343665E+04 E0= -.23343665E+04  d E =-.262260E-10
       N       E                     dE             d eps       ncg     rms          rms(c)
DAV:   1    -0.231206752006E+04    0.10226E-02   -0.16306E-01  2028   0.179E-01    0.171E-01
DAV:   2    -0.231206726909E+04    0.25097E-03   -0.20070E-03  1896   0.209E-02    0.978E-02
DAV:   3    -0.231206720343E+04    0.65661E-04   -0.45240E-04  1860   0.915E-03    0.343E-02
DAV:   4    -0.231206720182E+04    0.16101E-05   -0.46904E-05  1776   0.375E-03    0.117E-02
DAV:   5    -0.231206720266E+04   -0.84867E-06   -0.68510E-06  1596   0.162E-03
  18 F= -.23343642E+04 E0= -.23343642E+04  d E =-.263430E-10
       N       E                     dE             d eps       ncg     rms          rms(c)
DAV:   1    -0.231206634241E+04    0.85940E-03   -0.33932E-01  2028   0.255E-01    0.266E-01
DAV:   2    -0.231206558119E+04    0.76122E-03   -0.55764E-03  1956   0.368E-02    0.152E-01
DAV:   3    -0.231206538231E+04    0.19888E-03   -0.11899E-03  2076   0.149E-02    0.599E-02
DAV:   4    -0.231206536349E+04    0.18824E-04   -0.12056E-04  1860   0.620E-03    0.206E-02
DAV:   5    -0.231206536282E+04    0.66508E-06   -0.21547E-05  1692   0.270E-03    0.671E-03
DAV:   6    -0.231206536205E+04    0.77652E-06   -0.51141E-06  1536   0.129E-03
  19 F= -.23343641E+04 E0= -.23343641E+04  d E =-.277757E-10
       N       E                     dE             d eps       ncg     rms          rms(c)
DAV:   1    -0.231206813328E+04   -0.27705E-02   -0.16923E-01  2004   0.183E-01    0.179E-01
DAV:   2    -0.231206775386E+04    0.37942E-03   -0.27168E-03  1932   0.254E-02    0.993E-02
DAV:   3    -0.231206770032E+04    0.53536E-04   -0.72320E-04  1872   0.109E-02    0.409E-02
DAV:   4    -0.231206769466E+04    0.56618E-05   -0.55669E-05  1752   0.469E-03    0.170E-02
DAV:   5    -0.231206769646E+04   -0.17989E-05   -0.10601E-05  1656   0.213E-03    0.397E-03
DAV:   6    -0.231206769617E+04    0.28682E-06   -0.21526E-06  1488   0.863E-04
  20 F= -.23343656E+04 E0= -.23343656E+04  d E =-.292501E-10
       N       E                     dE             d eps       ncg     rms          rms(c)
DAV:   1    -0.231206817598E+04   -0.47952E-03   -0.32484E-01  1968   0.242E-01    0.207E-01
DAV:   2    -0.231206794131E+04    0.23467E-03   -0.33019E-03  1884   0.259E-02    0.120E-01
DAV:   3    -0.231206785411E+04    0.87197E-04   -0.77022E-04  1848   0.128E-02    0.335E-02
DAV:   4    -0.231206785671E+04   -0.25955E-05   -0.77502E-05  1764   0.462E-03    0.138E-02
DAV:   5    -0.231206785639E+04    0.31668E-06   -0.13814E-05  1680   0.220E-03    0.357E-03
DAV:   6    -0.231206785627E+04    0.12360E-06   -0.13451E-06  1536   0.836E-04
  21 F= -.23343656E+04 E0= -.23343656E+04  d E =-.248640E-10
       N       E                     dE             d eps       ncg     rms          rms(c)
DAV:   1    -0.231206909548E+04   -0.12391E-02   -0.15925E-01  1968   0.174E-01    0.140E-01
DAV:   2    -0.231206902455E+04    0.70925E-04   -0.15443E-03  1908   0.166E-02    0.826E-02
DAV:   3    -0.231206899333E+04    0.31223E-04   -0.34721E-04  1776   0.854E-03    0.211E-02
DAV:   4    -0.231206899477E+04   -0.14363E-05   -0.37024E-05  1716   0.316E-03    0.927E-03
DAV:   5    -0.231206899487E+04   -0.10518E-06   -0.65680E-06  1608   0.170E-03
  22 F= -.23343666E+04 E0= -.23343666E+04  d E =-.272578E-10
       N       E                     dE             d eps       ncg     rms          rms(c)
DAV:   1    -0.231206850075E+04    0.49402E-03   -0.30021E-01  1884   0.243E-01    0.175E-01
DAV:   2    -0.231206853358E+04   -0.32829E-04   -0.21626E-03  1932   0.176E-02    0.106E-01
DAV:   3    -0.231206850601E+04    0.27569E-04   -0.33303E-04  1860   0.897E-03    0.124E-02
DAV:   4    -0.231206850501E+04    0.99809E-06   -0.35916E-05  1740   0.294E-03    0.823E-03
DAV:   5    -0.231206850363E+04    0.13850E-05   -0.76970E-06  1668   0.220E-03    0.195E-03
DAV:   6    -0.231206850361E+04    0.20751E-07   -0.11408E-06  1428   0.112E-03
  23 F= -.23343666E+04 E0= -.23343666E+04  d E =-.281902E-10
       N       E                     dE             d eps       ncg     rms          rms(c)
DAV:   1    -0.231206578285E+04    0.27208E-02   -0.15672E-01  2028   0.175E-01    0.151E-01
DAV:   2    -0.231206562544E+04    0.15741E-03   -0.15531E-03  1920   0.181E-02    0.860E-02
DAV:   3    -0.231206558138E+04    0.44064E-04   -0.29287E-04  1800   0.786E-03    0.288E-02
DAV:   4    -0.231206558004E+04    0.13340E-05   -0.30583E-05  1752   0.330E-03    0.939E-03
DAV:   5    -0.231206557999E+04    0.47439E-07   -0.44685E-06  1536   0.148E-03
  24 F= -.23343641E+04 E0= -.23343641E+04  d E =-.256426E-10
       N       E                     dE             d eps       ncg     rms          rms(c)
DAV:   1    -0.231206781367E+04   -0.22336E-02   -0.33995E-01  2016   0.259E-01    0.277E-01
DAV:   2    -0.231206696380E+04    0.84987E-03   -0.57865E-03  1956   0.359E-02    0.156E-01
DAV:   3    -0.231206675757E+04    0.20623E-03   -0.12304E-03  1896   0.149E-02    0.605E-02
DAV:   4    -0.231206674323E+04    0.14341E-04   -0.13152E-04  1836   0.663E-03    0.196E-02
DAV:   5    -0.231206674417E+04   -0.94122E-06   -0.19454E-05  1740   0.276E-03    0.650E-03
DAV:   6    -0.231206674349E+04    0.68231E-06   -0.54037E-06  1536   0.134E-03
  25 F= -.23343639E+04 E0= -.23343639E+04  d E =-.277852E-10
       N       E                     dE             d eps       ncg     rms          rms(c)
DAV:   1    -0.231206169672E+04    0.50474E-02   -0.66288E-01  1896   0.389E-01    0.264E-01
DAV:   2    -0.231206062721E+04    0.10695E-02   -0.91926E-03  1920   0.466E-02    0.141E-01
DAV:   3    -0.231206041972E+04    0.20749E-03   -0.22588E-03  1944   0.189E-02    0.689E-02
DAV:   4    -0.231206040588E+04    0.13843E-04   -0.24312E-04  1776   0.698E-03    0.339E-02
DAV:   5    -0.231206040777E+04   -0.18904E-05   -0.33228E-05  1656   0.406E-03    0.733E-03
DAV:   6    -0.231206040589E+04    0.18754E-05   -0.88562E-06  1644   0.167E-03    0.385E-03
DAV:   7    -0.231206040574E+04    0.15466E-06   -0.16320E-06  1536   0.691E-04
  26 F= -.23343587E+04 E0= -.23343587E+04  d E =-.221001E-12
       N       E                     dE             d eps       ncg     rms          rms(c)
DAV:   1    -0.231206368702E+04   -0.32811E-02   -0.23145E+00  1872   0.714E-01    0.437E-01
DAV:   2    -0.231206149707E+04    0.21900E-02   -0.20586E-02  1956   0.694E-02    0.234E-01
DAV:   3    -0.231206068168E+04    0.81539E-03   -0.55622E-03  1980   0.300E-02    0.903E-02
DAV:   4    -0.231206066975E+04    0.11931E-04   -0.73396E-04  1824   0.102E-02    0.388E-02
DAV:   5    -0.231206067543E+04   -0.56778E-05   -0.53845E-05  1716   0.435E-03    0.949E-03
DAV:   6    -0.231206067516E+04    0.26767E-06   -0.12910E-05  1632   0.183E-03    0.540E-03
DAV:   7    -0.231206067542E+04   -0.25699E-06   -0.12646E-06  1440   0.888E-04
  27 F= -.23343581E+04 E0= -.23343581E+04  d E =-.156565E-12
       N       E                     dE             d eps       ncg     rms          rms(c)
DAV:   1    -0.231206869687E+04   -0.80217E-02   -0.11146E+00  1872   0.475E-01    0.271E-01
DAV:   2    -0.231206790681E+04    0.79007E-03   -0.98216E-03  1932   0.465E-02    0.155E-01
DAV:   3    -0.231206761724E+04    0.28957E-03   -0.23659E-03  1944   0.204E-02    0.601E-02
DAV:   4    -0.231206761213E+04    0.51086E-05   -0.33490E-04  1824   0.722E-03    0.264E-02
DAV:   5    -0.231206761768E+04   -0.55500E-05   -0.28669E-05  1668   0.343E-03    0.692E-03
DAV:   6    -0.231206761654E+04    0.11339E-05   -0.76067E-06  1632   0.149E-03    0.373E-03
DAV:   7    -0.231206761640E+04    0.14799E-06   -0.82021E-07  1416   0.787E-04
  28 F= -.23343655E+04 E0= -.23343655E+04  d E =-.226258E-14
       N       E                     dE             d eps       ncg     rms          rms(c)
DAV:   1    -0.231206782511E+04   -0.20857E-03   -0.20160E+00  1872   0.534E-01    0.257E-01
DAV:   2    -0.231206779831E+04    0.26799E-04   -0.10347E-02  2088   0.374E-02    0.158E-01
DAV:   3    -0.231206758759E+04    0.21073E-03   -0.17448E-03  1944   0.217E-02    0.317E-02
DAV:   4    -0.231206760528E+04   -0.17693E-04   -0.35523E-04  2148   0.682E-03    0.182E-02
DAV:   5    -0.231206760674E+04   -0.14658E-05   -0.29340E-05  1908   0.329E-03    0.592E-03
DAV:   6    -0.231206760700E+04   -0.25638E-06   -0.18525E-06  1596   0.208E-03
  29 F= -.23343654E+04 E0= -.23343654E+04  d E =-.933372E-11
       N       E                     dE             d eps       ncg     rms          rms(c)
DAV:   1    -0.231206313679E+04    0.44700E-02   -0.10568E+00  1872   0.436E-01    0.204E-01
DAV:   2    -0.231206323760E+04   -0.10081E-03   -0.68876E-03  2004   0.342E-02    0.130E-01
DAV:   3    -0.231206304493E+04    0.19267E-03   -0.87844E-04  1920   0.145E-02    0.338E-02
DAV:   4    -0.231206306542E+04   -0.20486E-04   -0.17997E-04  1884   0.423E-03    0.147E-02
DAV:   5    -0.231206306638E+04   -0.95795E-06   -0.73518E-06  1572   0.152E-03
  30 F= -.23343605E+04 E0= -.23343605E+04  d E =-.249218E-10
       N       E                     dE             d eps       ncg     rms          rms(c)
DAV:   1    -0.231206234513E+04    0.72029E-03   -0.22224E+00  1872   0.681E-01    0.308E-01
DAV:   2    -0.231206246333E+04   -0.11820E-03   -0.14377E-02  2088   0.556E-02    0.204E-01
DAV:   3    -0.231206190869E+04    0.55464E-03   -0.31475E-03  2004   0.265E-02    0.216E-02
DAV:   4    -0.231206193456E+04   -0.25866E-04   -0.49459E-04  1932   0.642E-03    0.150E-02
DAV:   5    -0.231206193247E+04    0.20897E-05   -0.21031E-05  1728   0.215E-03    0.692E-03
DAV:   6    -0.231206193205E+04    0.41418E-06   -0.48776E-06  1512   0.184E-03
  31 F= -.23343602E+04 E0= -.23343602E+04  d E =-.295492E-10
       N       E                     dE             d eps       ncg     rms          rms(c)
DAV:   1    -0.231206114415E+04    0.78832E-03   -0.11454E+00  1872   0.510E-01    0.278E-01
DAV:   2    -0.231206087484E+04    0.26930E-03   -0.11682E-02  1944   0.479E-02    0.162E-01
DAV:   3    -0.231206049267E+04    0.38217E-03   -0.19680E-03  1956   0.188E-02    0.563E-02
DAV:   4    -0.231206050010E+04   -0.74287E-05   -0.31401E-04  1812   0.640E-03    0.195E-02
DAV:   5    -0.231206050193E+04   -0.18351E-05   -0.22219E-05  1680   0.263E-03    0.643E-03
DAV:   6    -0.231206050176E+04    0.17064E-06   -0.39893E-06  1608   0.126E-03
  32 F= -.23343580E+04 E0= -.23343580E+04  d E =-.159128E-12
       N       E                     dE             d eps       ncg     rms          rms(c)
DAV:   1    -0.231206351951E+04   -0.30176E-02   -0.23111E+00  1896   0.709E-01    0.427E-01
DAV:   2    -0.231206133633E+04    0.21832E-02   -0.21976E-02  1920   0.734E-02    0.233E-01
DAV:   3    -0.231206059632E+04    0.74001E-03   -0.51982E-03  1980   0.296E-02    0.964E-02
DAV:   4    -0.231206057955E+04    0.16771E-04   -0.74784E-04  1836   0.103E-02    0.414E-02
DAV:   5    -0.231206058661E+04   -0.70528E-05   -0.59395E-05  1728   0.481E-03    0.108E-02
DAV:   6    -0.231206058475E+04    0.18607E-05   -0.17061E-05  1704   0.210E-03    0.595E-03
DAV:   7    -0.231206058464E+04    0.10955E-06   -0.21799E-06  1536   0.107E-03
  33 F= -.23343588E+04 E0= -.23343588E+04  d E =-.226224E-12
       N       E                     dE             d eps       ncg     rms          rms(c)
DAV:   1    -0.231206900779E+04   -0.84230E-02   -0.11153E+00  1860   0.472E-01    0.270E-01
DAV:   2    -0.231206823761E+04    0.77018E-03   -0.93558E-03  1932   0.448E-02    0.151E-01
DAV:   3    -0.231206796766E+04    0.26995E-03   -0.23900E-03  1968   0.204E-02    0.563E-02
DAV:   4    -0.231206796776E+04   -0.10873E-06   -0.32337E-04  1800   0.696E-03    0.248E-02
DAV:   5    -0.231206797345E+04   -0.56839E-05   -0.24804E-05  1668   0.315E-03    0.657E-03
DAV:   6    -0.231206797299E+04    0.46229E-06   -0.66112E-06  1644   0.149E-03
  34 F= -.23343654E+04 E0= -.23343654E+04  d E =-.925637E-11
       N       E                     dE             d eps       ncg     rms          rms(c)
DAV:   1    -0.231206752886E+04    0.44459E-03   -0.20152E+00  1872   0.531E-01    0.261E-01
DAV:   2    -0.231206735403E+04    0.17482E-03   -0.10182E-02  2064   0.385E-02    0.157E-01
DAV:   3    -0.231206721939E+04    0.13464E-03   -0.15090E-03  1932   0.199E-02    0.345E-02
DAV:   4    -0.231206724683E+04   -0.27442E-04   -0.30815E-04  2160   0.630E-03    0.159E-02
DAV:   5    -0.231206725110E+04   -0.42728E-05   -0.14904E-05  1728   0.249E-03    0.598E-03
DAV:   6    -0.231206725141E+04   -0.30099E-06   -0.12695E-06  1500   0.166E-03
  35 F= -.23343655E+04 E0= -.23343655E+04  d E =-.234093E-14
       N       E                     dE             d eps       ncg     rms          rms(c)
DAV:   1    -0.231206292469E+04    0.43264E-02   -0.10579E+00  1872   0.431E-01    0.202E-01
DAV:   2    -0.231206297966E+04   -0.54971E-04   -0.64626E-03  1992   0.352E-02    0.128E-01
DAV:   3    -0.231206280092E+04    0.17875E-03   -0.10633E-03  1884   0.167E-02    0.206E-02
DAV:   4    -0.231206282263E+04   -0.21713E-04   -0.21259E-04  1932   0.442E-03    0.121E-02
DAV:   5    -0.231206282142E+04    0.12094E-05   -0.10785E-05  1668   0.193E-03    0.574E-03
DAV:   6    -0.231206282185E+04   -0.42567E-06   -0.16946E-06  1428   0.133E-03
  36 F= -.23343605E+04 E0= -.23343605E+04  d E =-.303789E-10
       N       E                     dE             d eps       ncg     rms          rms(c)
DAV:   1    -0.231206266080E+04    0.16062E-03   -0.22226E+00  1896   0.673E-01    0.310E-01
DAV:   2    -0.231206274175E+04   -0.80951E-04   -0.13812E-02  1992   0.559E-02    0.204E-01
DAV:   3    -0.231206217771E+04    0.56404E-03   -0.27709E-03  1956   0.252E-02    0.249E-02
DAV:   4    -0.231206221988E+04   -0.42172E-04   -0.46703E-04  1968   0.589E-03    0.163E-02
DAV:   5    -0.231206221653E+04    0.33542E-05   -0.18438E-05  1716   0.213E-03    0.100E-02
DAV:   6    -0.231206221616E+04    0.37087E-06   -0.65442E-06  1512   0.222E-03
  37 F= -.23343602E+04 E0= -.23343602E+04  d E =-.234620E-10
