       N       E                     dE             d eps       ncg     rms          rms(c)
DAV:   1     0.165721687697E+05    0.16572E+05   -0.74078E+05  1980   0.127E+03
DAV:   2    -0.346098148651E+03   -0.16918E+05   -0.16386E+05  2640   0.355E+02
DAV:   3    -0.255614082612E+04   -0.22100E+04   -0.22010E+04  2160   0.144E+02
DAV:   4    -0.261925744505E+04   -0.63117E+02   -0.62961E+02  2232   0.265E+01
DAV:   5    -0.262091968200E+04   -0.16622E+01   -0.16605E+01  2184   0.400E+00    0.140E+02
DAV:   6    -0.231511719898E+04    0.30580E+03   -0.13329E+03  2136   0.351E+01    0.650E+01
DAV:   7    -0.231459469414E+04    0.52250E+00   -0.40889E+01  2436   0.575E+00    0.243E+01
DAV:   8    -0.231399187359E+04    0.60282E+00   -0.23156E+00  2196   0.202E+00    0.981E+00
DAV:   9    -0.231399669540E+04   -0.48218E-02   -0.10737E+00  2196   0.135E+00    0.163E+00
DAV:  10    -0.231403475305E+04   -0.38058E-01   -0.12704E-01  2136   0.453E-01    0.906E-01
DAV:  11    -0.231404518986E+04   -0.10437E-01   -0.30620E-02  2100   0.243E-01    0.396E-01
DAV:  12    -0.231405732207E+04   -0.12132E-01   -0.13514E-02  2052   0.169E-01    0.182E-01
DAV:  13    -0.231406920100E+04   -0.11879E-01   -0.68385E-03  2076   0.123E-01    0.176E-01
DAV:  14    -0.231407372959E+04   -0.45286E-02   -0.34818E-03  2064   0.934E-02    0.489E-02
DAV:  15    -0.231407489208E+04   -0.11625E-02   -0.15826E-03  2100   0.577E-02    0.521E-02
DAV:  16    -0.231407513806E+04   -0.24599E-03   -0.24511E-04  1524   0.206E-02    0.477E-02
DAV:  17    -0.231407528508E+04   -0.14702E-03   -0.62252E-05  1368   0.105E-02    0.288E-02
DAV:  18    -0.231407569960E+04   -0.41452E-03   -0.22774E-04  1440   0.192E-02    0.280E-02
DAV:  19    -0.231407569467E+04    0.49345E-05   -0.41124E-05  1392   0.107E-02
   1 F= -.23365290E+04 E0= -.23365290E+04  d E =-.233653E+04
       N       E                     dE             d eps       ncg     rms          rms(c)
DAV:   1    -0.231407419224E+04    0.15074E-02   -0.26815E-01  1992   0.625E-01    0.261E-01
DAV:   2    -0.231407441720E+04   -0.22496E-03   -0.75979E-03  2172   0.119E-01    0.878E-02
DAV:   3    -0.231407408525E+04    0.33194E-03   -0.54864E-04  2052   0.680E-02    0.455E-02
DAV:   4    -0.231407390896E+04    0.17630E-03   -0.21780E-04  1620   0.623E-02    0.158E-02
DAV:   5    -0.231407389481E+04    0.14144E-04   -0.47453E-04  2052   0.477E-02
   2 F= -.23365272E+04 E0= -.23365272E+04  d E =0.180477E-02
       N       E                     dE             d eps       ncg     rms          rms(c)
DAV:   1    -0.231407608557E+04   -0.21766E-02   -0.16498E-01  1944   0.491E-01    0.193E-01
DAV:   2    -0.231407621648E+04   -0.13091E-03   -0.46863E-03  2196   0.941E-02    0.805E-02
DAV:   3    -0.231407605110E+04    0.16538E-03   -0.49716E-04  2148   0.498E-02    0.412E-02
DAV:   4    -0.231407598715E+04    0.63952E-04   -0.13060E-04  1404   0.299E-02
   3 F= -.23365293E+04 E0= -.23365293E+04  d E =-.291762E-03
       N       E                     dE             d eps       ncg     rms          rms(c)
DAV:   1    -0.231407596857E+04    0.82534E-04   -0.41122E-04  1944   0.358E-02    0.162E-02
DAV:   2    -0.231407596825E+04    0.32174E-06   -0.87403E-05  1368   0.156E-02
   4 F= -.23365293E+04 E0= -.23365293E+04  d E =-.273018E-03
       N       E                     dE             d eps       ncg     rms          rms(c)
DAV:   1    -0.231407596750E+04    0.10743E-05   -0.17083E-05  1176   0.526E-03    0.203E-02
DAV:   2    -0.231407596148E+04    0.60178E-05   -0.64638E-06  1308   0.446E-03
   5 F= -.23365293E+04 E0= -.23365293E+04  d E =-.266233E-03
       N       E                     dE             d eps       ncg     rms          rms(c)
DAV:   1    -0.231407595762E+04    0.98771E-05   -0.11317E-04  1332   0.153E-02    0.498E-03
DAV:   2    -0.231407595861E+04   -0.99323E-06   -0.19360E-05  1200   0.639E-03
   6 F= -.23365293E+04 E0= -.23365293E+04  d E =-.263295E-03
       N       E                     dE             d eps       ncg     rms          rms(c)
DAV:   1    -0.231407595921E+04   -0.15920E-05   -0.31249E-05  1080   0.654E-03    0.442E-03
DAV:   2    -0.231407595928E+04   -0.72963E-07   -0.30332E-06  1068   0.212E-03
   7 F= -.23365293E+04 E0= -.23365293E+04  d E =-.263930E-03
       N       E                     dE             d eps       ncg     rms          rms(c)
DAV:   1    -0.231407604222E+04   -0.83010E-04   -0.53822E-03  1740   0.803E-02    0.196E-02
DAV:   2    -0.231407605017E+04   -0.79479E-05   -0.10845E-04  1188   0.116E-02
   8 F= -.23365293E+04 E0= -.23365293E+04  d E =-.726812E-04
       N       E                     dE             d eps       ncg     rms          rms(c)
DAV:   1    -0.231407617765E+04   -0.13543E-03   -0.48306E-02  1920   0.241E-01    0.650E-02
DAV:   2    -0.231407624060E+04   -0.62951E-04   -0.94625E-04  2172   0.331E-02
   9 F= -.23365295E+04 E0= -.23365295E+04  d E =-.208920E-03
       N       E                     dE             d eps       ncg     rms          rms(c)
DAV:   1    -0.231407624564E+04   -0.67989E-04   -0.15566E-04  1356   0.153E-02    0.200E-02
DAV:   2    -0.231407624187E+04    0.37706E-05   -0.15463E-05  1116   0.627E-03
  10 F= -.23365295E+04 E0= -.23365295E+04  d E =0.226202E-05
       N       E                     dE             d eps       ncg     rms          rms(c)
DAV:   1    -0.231407630039E+04   -0.54751E-04   -0.12955E-03  1848   0.380E-02    0.992E-03
DAV:   2    -0.231407630203E+04   -0.16406E-05   -0.24409E-05  1068   0.569E-03
  11 F= -.23365295E+04 E0= -.23365295E+04  d E =-.473273E-04
       N       E                     dE             d eps       ncg     rms          rms(c)
DAV:   1    -0.231407641707E+04   -0.11667E-03   -0.53214E-03  1752   0.767E-02    0.191E-02
DAV:   2    -0.231407642381E+04   -0.67400E-05   -0.95232E-05  1080   0.102E-02
  12 F= -.23365296E+04 E0= -.23365296E+04  d E =-.148006E-03
       N       E                     dE             d eps       ncg     rms          rms(c)
DAV:   1    -0.231407663548E+04   -0.21842E-03   -0.21215E-02  1896   0.153E-01    0.373E-02
DAV:   2    -0.231407666116E+04   -0.25682E-04   -0.36375E-04  1632   0.193E-02
  13 F= -.23365298E+04 E0= -.23365298E+04  d E =-.343432E-03
       N       E                     dE             d eps       ncg     rms          rms(c)
DAV:   1    -0.231407699475E+04   -0.35927E-03   -0.84856E-02  1896   0.306E-01    0.749E-02
DAV:   2    -0.231407710034E+04   -0.10559E-03   -0.14905E-03  2112   0.385E-02    0.452E-02
DAV:   3    -0.231407708148E+04    0.18866E-04   -0.38783E-05  1296   0.837E-03
  14 F= -.23365302E+04 E0= -.23365302E+04  d E =-.680867E-03
       N       E                     dE             d eps       ncg     rms          rms(c)
DAV:   1    -0.231407734543E+04   -0.24508E-03   -0.33873E-01  1896   0.611E-01    0.137E-01
DAV:   2    -0.231407782263E+04   -0.47721E-03   -0.60609E-03  2124   0.775E-02    0.790E-02
DAV:   3    -0.231407776509E+04    0.57542E-04   -0.13069E-04  1512   0.146E-02
  15 F= -.23365307E+04 E0= -.23365307E+04  d E =-.120271E-02
       N       E                     dE             d eps       ncg     rms          rms(c)
DAV:   1    -0.231407679947E+04    0.10232E-02   -0.13546E+00  1896   0.122E+00    0.276E-01
DAV:   2    -0.231407870829E+04   -0.19088E-02   -0.24319E-02  2124   0.155E-01    0.159E-01
DAV:   3    -0.231407847896E+04    0.22934E-03   -0.56187E-04  1764   0.294E-02    0.883E-02
DAV:   4    -0.231407843016E+04    0.48801E-04   -0.33603E-04  1512   0.266E-02
  16 F= -.23365310E+04 E0= -.23365310E+04  d E =-.156034E-02
       N       E                     dE             d eps       ncg     rms          rms(c)
DAV:   1    -0.231407808031E+04    0.39865E-03   -0.18579E-01  1896   0.454E-01    0.954E-02
DAV:   2    -0.231407833307E+04   -0.25276E-03   -0.33742E-03  2088   0.576E-02    0.595E-02
DAV:   3    -0.231407829434E+04    0.38731E-04   -0.70840E-05  1320   0.106E-02
  17 F= -.23365310E+04 E0= -.23365310E+04  d E =-.153588E-02
       N       E                     dE             d eps       ncg     rms          rms(c)
DAV:   1    -0.231407831915E+04    0.13918E-04   -0.18770E-02  1872   0.145E-01    0.295E-02
DAV:   2    -0.231407835154E+04   -0.32387E-04   -0.41197E-04  1500   0.204E-02
  18 F= -.23365310E+04 E0= -.23365310E+04  d E =-.155860E-02
       N       E                     dE             d eps       ncg     rms          rms(c)
DAV:   1    -0.231407840269E+04   -0.83540E-04   -0.19138E-03  1716   0.453E-02    0.182E-02
DAV:   2    -0.231407840173E+04    0.96057E-06   -0.30094E-05  1080   0.601E-03
  19 F= -.23365311E+04 E0= -.23365311E+04  d E =-.391428E-04
       N       E                     dE             d eps       ncg     rms          rms(c)
DAV:   1    -0.231407854120E+04   -0.13850E-03   -0.17066E-02  1872   0.136E-01    0.293E-02
DAV:   2    -0.231407856294E+04   -0.21743E-04   -0.27958E-04  1512   0.167E-02
  20 F= -.23365312E+04 E0= -.23365312E+04  d E =-.167393E-03
       N       E                     dE             d eps       ncg     rms          rms(c)
DAV:   1    -0.231407880126E+04   -0.26006E-03   -0.69188E-02  1896   0.274E-01    0.633E-02
DAV:   2    -0.231407888913E+04   -0.87870E-04   -0.11923E-03  2004   0.336E-02    0.400E-02
DAV:   3    -0.231407887583E+04    0.13299E-04   -0.32784E-05  1164   0.689E-03
  21 F= -.23365314E+04 E0= -.23365314E+04  d E =-.415276E-03
       N       E                     dE             d eps       ncg     rms          rms(c)
DAV:   1    -0.231407913993E+04   -0.25080E-03   -0.27587E-01  1908   0.548E-01    0.115E-01
DAV:   2    -0.231407952875E+04   -0.38882E-03   -0.48402E-03  2088   0.677E-02    0.709E-02
DAV:   3    -0.231407948776E+04    0.40992E-04   -0.96596E-05  1464   0.113E-02
  22 F= -.23365319E+04 E0= -.23365319E+04  d E =-.900694E-03
       N       E                     dE             d eps       ncg     rms          rms(c)
DAV:   1    -0.231407924420E+04    0.28455E-03   -0.11026E+00  1908   0.110E+00    0.232E-01
DAV:   2    -0.231408079661E+04   -0.15524E-02   -0.19359E-02  2088   0.135E-01    0.142E-01
DAV:   3    -0.231408063272E+04    0.16389E-03   -0.40968E-04  1680   0.225E-02    0.774E-02
DAV:   4    -0.231408061202E+04    0.20699E-04   -0.26121E-04  1440   0.203E-02
  23 F= -.23365328E+04 E0= -.23365328E+04  d E =-.178612E-02
       N       E                     dE             d eps       ncg     rms          rms(c)
DAV:   1    -0.231407675174E+04    0.38810E-02   -0.44481E+00  1872   0.220E+00    0.470E-01
DAV:   2    -0.231408327840E+04   -0.65267E-02   -0.81050E-02  2088   0.277E-01    0.285E-01
DAV:   3    -0.231408261020E+04    0.66820E-03   -0.16859E-03  2076   0.453E-02    0.161E-01
DAV:   4    -0.231408249925E+04    0.11095E-03   -0.11030E-03  2028   0.417E-02    0.324E-02
DAV:   5    -0.231408251234E+04   -0.13090E-04   -0.20207E-04  1440   0.166E-02
  24 F= -.23365343E+04 E0= -.23365343E+04  d E =-.326592E-02
       N       E                     dE             d eps       ncg     rms          rms(c)
DAV:   1    -0.231406142051E+04    0.21079E-01   -0.17698E+01  1872   0.440E+00    0.964E-01
DAV:   2    -0.231408789899E+04   -0.26478E-01   -0.32810E-01  2088   0.553E-01    0.570E-01
DAV:   3    -0.231408525302E+04    0.26460E-02   -0.66476E-03  2172   0.890E-02    0.340E-01
DAV:   4    -0.231408468104E+04    0.57198E-03   -0.43169E-03  2064   0.828E-02    0.699E-02
DAV:   5    -0.231408475551E+04   -0.74474E-04   -0.85139E-04  2004   0.328E-02
  25 F= -.23365359E+04 E0= -.23365359E+04  d E =-.489960E-02
       N       E                     dE             d eps       ncg     rms          rms(c)
DAV:   1    -0.231408479119E+04   -0.11016E-03   -0.96683E-01  1896   0.103E+00    0.225E-01
DAV:   2    -0.231408629772E+04   -0.15065E-02   -0.18175E-02  2100   0.132E-01    0.133E-01
DAV:   3    -0.231408614913E+04    0.14859E-03   -0.35765E-04  1656   0.249E-02    0.748E-02
DAV:   4    -0.231408612635E+04    0.22784E-04   -0.28032E-04  1464   0.246E-02
  26 F= -.23365372E+04 E0= -.23365372E+04  d E =-.130217E-02
       N       E                     dE             d eps       ncg     rms          rms(c)
DAV:   1    -0.231408565008E+04    0.49905E-03   -0.11759E+00  1896   0.114E+00    0.248E-01
DAV:   2    -0.231408741289E+04   -0.17628E-02   -0.21804E-02  2100   0.145E-01    0.146E-01
DAV:   3    -0.231408722527E+04    0.18762E-03   -0.45150E-04  1716   0.262E-02    0.824E-02
DAV:   4    -0.231408718593E+04    0.39337E-04   -0.31118E-04  1488   0.271E-02
  27 F= -.23365382E+04 E0= -.23365382E+04  d E =-.230564E-02
       N       E                     dE             d eps       ncg     rms          rms(c)
DAV:   1    -0.231408169984E+04    0.55254E-02   -0.46840E+00  1872   0.227E+00    0.495E-01
DAV:   2    -0.231408870072E+04   -0.70009E-02   -0.86944E-02  2100   0.290E-01    0.292E-01
DAV:   3    -0.231408795817E+04    0.74254E-03   -0.18446E-03  2136   0.514E-02    0.168E-01
DAV:   4    -0.231408779254E+04    0.16564E-03   -0.11988E-03  2052   0.515E-02    0.340E-02
DAV:   5    -0.231408781121E+04   -0.18678E-04   -0.30219E-04  1524   0.219E-02
  28 F= -.23365388E+04 E0= -.23365388E+04  d E =-.288093E-02
       N       E                     dE             d eps       ncg     rms          rms(c)
DAV:   1    -0.231408630476E+04    0.14878E-02   -0.11798E+00  1872   0.114E+00    0.235E-01
DAV:   2    -0.231408799495E+04   -0.16902E-02   -0.21436E-02  2088   0.144E-01    0.147E-01
DAV:   3    -0.231408778458E+04    0.21037E-03   -0.46726E-04  1680   0.254E-02    0.808E-02
DAV:   4    -0.231408774543E+04    0.39149E-04   -0.32066E-04  1512   0.237E-02
  29 F= -.23365388E+04 E0= -.23365388E+04  d E =-.282982E-02
       N       E                     dE             d eps       ncg     rms          rms(c)
DAV:   1    -0.231408719612E+04    0.58846E-03   -0.53695E-01  1896   0.771E-01    0.159E-01
DAV:   2    -0.231408796456E+04   -0.76843E-03   -0.97976E-03  2088   0.972E-02    0.988E-02
DAV:   3    -0.231408786481E+04    0.99746E-04   -0.19849E-04  1548   0.174E-02
  30 F= -.23365389E+04 E0= -.23365389E+04  d E =-.293695E-02
       N       E                     dE             d eps       ncg     rms          rms(c)
DAV:   1    -0.231408827172E+04   -0.30716E-03   -0.20580E-01  1908   0.475E-01    0.106E-01
DAV:   2    -0.231408854620E+04   -0.27448E-03   -0.34408E-03  2112   0.579E-02    0.629E-02
DAV:   3    -0.231408851852E+04    0.27682E-04   -0.82032E-05  1440   0.108E-02
  31 F= -.23365394E+04 E0= -.23365394E+04  d E =-.512689E-03
       N       E                     dE             d eps       ncg     rms          rms(c)
DAV:   1    -0.231408747959E+04    0.10666E-02   -0.18900E+00  1872   0.145E+00    0.309E-01
DAV:   2    -0.231409025056E+04   -0.27710E-02   -0.34279E-02  2112   0.182E-01    0.185E-01
DAV:   3    -0.231408995539E+04    0.29518E-03   -0.74300E-04  1824   0.312E-02    0.103E-01
DAV:   4    -0.231408990164E+04    0.53749E-04   -0.48321E-04  1668   0.277E-02
  32 F= -.23365404E+04 E0= -.23365404E+04  d E =-.149542E-02
       N       E                     dE             d eps       ncg     rms          rms(c)
DAV:   1    -0.231409060297E+04   -0.64758E-03   -0.85799E-02  1884   0.317E-01    0.840E-02
DAV:   2    -0.231409073297E+04   -0.13000E-03   -0.17536E-03  2172   0.451E-02    0.425E-02
DAV:   3    -0.231409071146E+04    0.21505E-04   -0.49005E-05  1392   0.119E-02
  33 F= -.23365410E+04 E0= -.23365410E+04  d E =-.635372E-03
       N       E                     dE             d eps       ncg     rms          rms(c)
DAV:   1    -0.231409069763E+04    0.35337E-04   -0.43218E-01  1896   0.714E-01    0.188E-01
DAV:   2    -0.231409129623E+04   -0.59860E-03   -0.84261E-03  2172   0.990E-02    0.935E-02
DAV:   3    -0.231409116896E+04    0.12727E-03   -0.24932E-04  1536   0.262E-02    0.522E-02
DAV:   4    -0.231409111321E+04    0.55749E-04   -0.15541E-04  1452   0.274E-02
  34 F= -.23365410E+04 E0= -.23365410E+04  d E =-.646013E-03
       N       E                     dE             d eps       ncg     rms          rms(c)
DAV:   1    -0.231409106506E+04    0.10390E-03   -0.95258E-02  1896   0.336E-01    0.841E-02
DAV:   2    -0.231409119442E+04   -0.12936E-03   -0.18723E-03  2160   0.461E-02    0.463E-02
DAV:   3    -0.231409116794E+04    0.26484E-04   -0.53908E-05  1356   0.112E-02
  35 F= -.23365412E+04 E0= -.23365412E+04  d E =-.882367E-03
       N       E                     dE             d eps       ncg     rms          rms(c)
DAV:   1    -0.231409160121E+04   -0.40679E-03   -0.11326E-01  1896   0.374E-01    0.815E-02
DAV:   2    -0.231409178191E+04   -0.18070E-03   -0.22750E-03  2148   0.497E-02    0.435E-02
DAV:   3    -0.231409175738E+04    0.24526E-04   -0.51021E-05  1332   0.957E-03
  36 F= -.23365416E+04 E0= -.23365416E+04  d E =-.361754E-03
       N       E                     dE             d eps       ncg     rms          rms(c)
DAV:   1    -0.231409195894E+04   -0.17703E-03   -0.14300E-01  1896   0.418E-01    0.964E-02
DAV:   2    -0.231409215312E+04   -0.19417E-03   -0.25417E-03  2172   0.526E-02    0.505E-02
DAV:   3    -0.231409212484E+04    0.28277E-04   -0.64400E-05  1392   0.106E-02
  37 F= -.23365417E+04 E0= -.23365417E+04  d E =-.471514E-03
       N       E                     dE             d eps       ncg     rms          rms(c)
DAV:   1    -0.231409236282E+04   -0.20970E-03   -0.52830E-02  1896   0.265E-01    0.819E-02
DAV:   2    -0.231409244708E+04   -0.84258E-04   -0.11779E-03  2184   0.378E-02    0.327E-02
DAV:   3    -0.231409242951E+04    0.17569E-04   -0.33895E-05  1284   0.879E-03
  38 F= -.23365420E+04 E0= -.23365420E+04  d E =-.272406E-03
       N       E                     dE             d eps       ncg     rms          rms(c)
DAV:   1    -0.231409243436E+04    0.12719E-04   -0.27432E-03  1920   0.598E-02    0.188E-02
DAV:   2    -0.231409243735E+04   -0.29885E-05   -0.49167E-05  1164   0.862E-03
  39 F= -.23365420E+04 E0= -.23365420E+04  d E =-.272608E-03
       N       E                     dE             d eps       ncg     rms          rms(c)
DAV:   1    -0.231409257643E+04   -0.14207E-03   -0.17449E-02  1908   0.154E-01    0.443E-02
DAV:   2    -0.231409260079E+04   -0.24362E-04   -0.35002E-04  1716   0.213E-02
  40 F= -.23365421E+04 E0= -.23365421E+04  d E =-.162660E-03
       N       E                     dE             d eps       ncg     rms          rms(c)
DAV:   1    -0.231409263841E+04   -0.61982E-04   -0.21689E-02  1908   0.171E-01    0.518E-02
DAV:   2    -0.231409265614E+04   -0.17727E-04   -0.40481E-04  1800   0.235E-02
  41 F= -.23365422E+04 E0= -.23365422E+04  d E =-.217314E-03
