       N       E                     dE             d eps       ncg     rms          rms(c)
DAV:   1     0.288598739638E+03    0.28860E+03   -0.78063E+03    80   0.518E+02
DAV:   2     0.696462436403E+02   -0.21895E+03   -0.20012E+03    96   0.107E+02
DAV:   3    -0.916565428836E+02   -0.16130E+03   -0.16080E+03    88   0.886E+01
DAV:   4    -0.115709174379E+03   -0.24053E+02   -0.24015E+02    88   0.524E+01
DAV:   5    -0.116158892980E+03   -0.44972E+00   -0.44923E+00    88   0.898E+00    0.164E+01
DAV:   6    -0.107544445348E+03    0.86144E+01   -0.12342E+01    88   0.136E+01    0.880E+00
DAV:   7    -0.105207327156E+03    0.23371E+01   -0.69601E+00    88   0.987E+00    0.374E+00
DAV:   8    -0.104873263155E+03    0.33406E+00   -0.54088E-01    72   0.335E+00    0.540E-01
DAV:   9    -0.104832741957E+03    0.40521E-01   -0.79026E-02    96   0.118E+00    0.367E-01
DAV:  10    -0.104818706969E+03    0.14035E-01   -0.16255E-02    80   0.509E-01    0.213E-01
DAV:  11    -0.104807863791E+03    0.10843E-01   -0.54685E-03    88   0.321E-01    0.124E-01
DAV:  12    -0.104801617370E+03    0.62464E-02   -0.92233E-03    88   0.345E-01    0.740E-02
DAV:  13    -0.104811697741E+03   -0.10080E-01   -0.17752E-03    80   0.155E-01    0.467E-02
DAV:  14    -0.104821385641E+03   -0.96879E-02   -0.10353E-03    72   0.105E-01    0.280E-02
DAV:  15    -0.104829231685E+03   -0.78460E-02   -0.97617E-04    80   0.101E-01    0.155E-02
DAV:  16    -0.104832536984E+03   -0.33053E-02   -0.33477E-04    80   0.546E-02    0.841E-03
DAV:  17    -0.104834029377E+03   -0.14924E-02   -0.11303E-04    64   0.333E-02    0.514E-03
DAV:  18    -0.104834712935E+03   -0.68356E-03   -0.60586E-05    64   0.229E-02    0.292E-03
DAV:  19    -0.104834903683E+03   -0.19075E-03   -0.12604E-05    64   0.111E-02    0.171E-03
DAV:  20    -0.104835048157E+03   -0.14447E-03   -0.76188E-06    48   0.895E-03    0.108E-03
DAV:  21    -0.104835091755E+03   -0.43598E-04   -0.21810E-06    72   0.451E-03
   1 F= -.10528039E+03 E0= -.10528039E+03  d E =-.105280E+03
       N       E                     dE             d eps       ncg     rms          rms(c)
DAV:   1    -0.104828241853E+03    0.68063E-02   -0.34985E-02    80   0.953E-01    0.350E-02
DAV:   2    -0.104828267367E+03   -0.25513E-04   -0.53485E-04    72   0.108E-01
   2 F= -.10527365E+03 E0= -.10527365E+03  d E =0.674455E-02
       N       E                     dE             d eps       ncg     rms          rms(c)
DAV:   1    -0.104814515413E+03    0.13726E-01   -0.13390E-01    80   0.186E+00    0.754E-02
DAV:   2    -0.104814575319E+03   -0.59906E-04   -0.19859E-03    88   0.207E-01    0.532E-02
DAV:   3    -0.104814548489E+03    0.26830E-04   -0.15460E-04    72   0.668E-02
   3 F= -.10526008E+03 E0= -.10526008E+03  d E =0.135633E-01
       N       E                     dE             d eps       ncg     rms          rms(c)
DAV:   1    -0.104794450779E+03    0.20125E-01   -0.29195E-01    64   0.273E+00    0.990E-02
DAV:   2    -0.104794624686E+03   -0.17391E-03   -0.41800E-03    96   0.297E-01    0.702E-02
DAV:   3    -0.104794568045E+03    0.56641E-04   -0.24948E-04    80   0.824E-02
   4 F= -.10524033E+03 E0= -.10524033E+03  d E =0.197538E-01
       N       E                     dE             d eps       ncg     rms          rms(c)
DAV:   1    -0.104770249015E+03    0.24376E-01   -0.49570E-01    64   0.355E+00    0.129E-01
DAV:   2    -0.104770520659E+03   -0.27164E-03   -0.69726E-03    80   0.380E-01    0.904E-02
DAV:   3    -0.104770421628E+03    0.99030E-04   -0.44865E-04    72   0.109E-01
   5 F= -.10521645E+03 E0= -.10521645E+03  d E =0.238813E-01
       N       E                     dE             d eps       ncg     rms          rms(c)
DAV:   1    -0.104744539594E+03    0.25981E-01   -0.74194E-01    64   0.434E+00    0.158E-01
DAV:   2    -0.104744932406E+03   -0.39281E-03   -0.10448E-02    80   0.464E-01    0.111E-01
DAV:   3    -0.104744775407E+03    0.15700E-03   -0.68738E-04    88   0.135E-01    0.446E-02
DAV:   4    -0.104744819200E+03   -0.43793E-04   -0.19636E-04    56   0.576E-02
   6 F= -.10519110E+03 E0= -.10519110E+03  d E =0.253456E-01
       N       E                     dE             d eps       ncg     rms          rms(c)
DAV:   1    -0.104720232362E+03    0.24543E-01   -0.10134E+00    64   0.505E+00    0.181E-01
DAV:   2    -0.104720795542E+03   -0.56318E-03   -0.14909E-02    80   0.551E-01    0.126E-01
DAV:   3    -0.104720549698E+03    0.24584E-03   -0.92969E-04    88   0.157E-01    0.520E-02
DAV:   4    -0.104720598785E+03   -0.49087E-04   -0.27994E-04    56   0.690E-02
   7 F= -.10516710E+03 E0= -.10516710E+03  d E =0.240026E-01
       N       E                     dE             d eps       ncg     rms          rms(c)
DAV:   1    -0.104700513583E+03    0.20036E-01   -0.12729E+00    64   0.566E+00    0.202E-01
DAV:   2    -0.104701177659E+03   -0.66408E-03   -0.18632E-02    80   0.617E-01    0.141E-01
DAV:   3    -0.104700859164E+03    0.31850E-03   -0.11993E-03    72   0.179E-01    0.580E-02
DAV:   4    -0.104700917556E+03   -0.58392E-04   -0.35588E-04    72   0.777E-02
   8 F= -.10514758E+03 E0= -.10514758E+03  d E =0.195173E-01
       N       E                     dE             d eps       ncg     rms          rms(c)
DAV:   1    -0.104688428986E+03    0.12430E-01   -0.14759E+00    64   0.609E+00    0.216E-01
DAV:   2    -0.104689167791E+03   -0.73881E-03   -0.21288E-02    80   0.660E-01    0.151E-01
DAV:   3    -0.104688804696E+03    0.36310E-03   -0.13775E-03    72   0.192E-01    0.629E-02
DAV:   4    -0.104688870365E+03   -0.65669E-04   -0.40551E-04    56   0.834E-02
   9 F= -.10513571E+03 E0= -.10513571E+03  d E =0.118757E-01
       N       E                     dE             d eps       ncg     rms          rms(c)
DAV:   1    -0.104686337419E+03    0.24673E-02   -0.15678E+00    64   0.631E+00    0.223E-01
DAV:   2    -0.104687097125E+03   -0.75971E-03   -0.22366E-02    80   0.678E-01    0.155E-01
DAV:   3    -0.104686717187E+03    0.37994E-03   -0.14685E-03    72   0.198E-01    0.656E-02
DAV:   4    -0.104686786025E+03   -0.68838E-04   -0.41792E-04    56   0.856E-02
  10 F= -.10513388E+03 E0= -.10513388E+03  d E =0.182411E-02
       N       E                     dE             d eps       ncg     rms          rms(c)
DAV:   1    -0.104694343604E+03   -0.76264E-02   -0.14652E+00    64   0.616E+00    0.216E-01
DAV:   2    -0.104695076338E+03   -0.73273E-03   -0.20281E-02    80   0.649E-01    0.150E-01
DAV:   3    -0.104694759997E+03    0.31634E-03   -0.12870E-03    64   0.186E-01    0.644E-02
DAV:   4    -0.104694827934E+03   -0.67937E-04   -0.36651E-04    56   0.806E-02
  11 F= -.10514244E+03 E0= -.10514244E+03  d E =-.855868E-02
       N       E                     dE             d eps       ncg     rms          rms(c)
DAV:   1    -0.104709922257E+03   -0.15162E-01   -0.12407E+00    64   0.578E+00    0.209E-01
DAV:   2    -0.104710567750E+03   -0.64549E-03   -0.17127E-02    80   0.604E-01    0.145E-01
DAV:   3    -0.104710306811E+03    0.26094E-03   -0.11269E-03    64   0.175E-01    0.592E-02
DAV:   4    -0.104710370888E+03   -0.64077E-04   -0.29786E-04    56   0.743E-02
  12 F= -.10515879E+03 E0= -.10515879E+03  d E =-.163442E-01
       N       E                     dE             d eps       ncg     rms          rms(c)
DAV:   1    -0.104728120827E+03   -0.17814E-01   -0.94459E-01    64   0.516E+00    0.186E-01
DAV:   2    -0.104728735353E+03   -0.61453E-03   -0.11995E-02    80   0.506E-01    0.128E-01
DAV:   3    -0.104728642688E+03    0.92665E-04   -0.66160E-04    64   0.135E-01
  13 F= -.10517833E+03 E0= -.10517833E+03  d E =-.195467E-01
       N       E                     dE             d eps       ncg     rms          rms(c)
DAV:   1    -0.104740935954E+03   -0.12201E-01   -0.10051E+00    64   0.541E+00    0.245E-01
DAV:   2    -0.104741629969E+03   -0.69401E-03   -0.19552E-02    72   0.662E-01    0.167E-01
DAV:   3    -0.104741186690E+03    0.44328E-03   -0.16635E-03    64   0.211E-01    0.603E-02
DAV:   4    -0.104741235434E+03   -0.48745E-04   -0.38488E-04    56   0.873E-02
  14 F= -.10519163E+03 E0= -.10519163E+03  d E =-.132963E-01
       N       E                     dE             d eps       ncg     rms          rms(c)
DAV:   1    -0.104747084146E+03   -0.58975E-02   -0.11544E-01    64   0.185E+00    0.867E-02
DAV:   2    -0.104747226477E+03   -0.14233E-03   -0.29807E-03    72   0.252E-01    0.589E-02
DAV:   3    -0.104747191723E+03    0.34754E-04   -0.18950E-04    64   0.712E-02
  15 F= -.10519798E+03 E0= -.10519798E+03  d E =-.634815E-02
       N       E                     dE             d eps       ncg     rms          rms(c)
DAV:   1    -0.104751433701E+03   -0.42072E-02   -0.55035E-02    64   0.131E+00    0.574E-02
DAV:   2    -0.104751491312E+03   -0.57611E-04   -0.99125E-04    72   0.149E-01
  16 F= -.10520271E+03 E0= -.10520271E+03  d E =-.473380E-02
       N       E                     dE             d eps       ncg     rms          rms(c)
DAV:   1    -0.104755961953E+03   -0.45283E-02   -0.41657E-02    64   0.112E+00    0.562E-02
DAV:   2    -0.104755992958E+03   -0.31005E-04   -0.58297E-04    72   0.116E-01
  17 F= -.10520757E+03 E0= -.10520757E+03  d E =-.486263E-02
       N       E                     dE             d eps       ncg     rms          rms(c)
DAV:   1    -0.104760974662E+03   -0.50127E-02   -0.51677E-02    64   0.124E+00    0.611E-02
DAV:   2    -0.104760998525E+03   -0.23863E-04   -0.61301E-04    64   0.119E-01
  18 F= -.10521301E+03 E0= -.10521301E+03  d E =-.543850E-02
       N       E                     dE             d eps       ncg     rms          rms(c)
DAV:   1    -0.104766441367E+03   -0.54667E-02   -0.63462E-02    64   0.138E+00    0.667E-02
DAV:   2    -0.104766475169E+03   -0.33801E-04   -0.73607E-04    64   0.130E-01
  19 F= -.10521899E+03 E0= -.10521899E+03  d E =-.597492E-02
       N       E                     dE             d eps       ncg     rms          rms(c)
DAV:   1    -0.104772316845E+03   -0.58755E-02   -0.77874E-02    64   0.153E+00    0.744E-02
DAV:   2    -0.104772357788E+03   -0.40943E-04   -0.92180E-04    64   0.145E-01
  20 F= -.10522542E+03 E0= -.10522542E+03  d E =-.643728E-02
       N       E                     dE             d eps       ncg     rms          rms(c)
DAV:   1    -0.104778498964E+03   -0.61821E-02   -0.92007E-02    64   0.166E+00    0.818E-02
DAV:   2    -0.104778549040E+03   -0.50076E-04   -0.10842E-03    80   0.158E-01    0.538E-02
DAV:   3    -0.104778562026E+03   -0.12986E-04   -0.86338E-05    48   0.501E-02
  21 F= -.10523225E+03 E0= -.10523225E+03  d E =-.682145E-02
       N       E                     dE             d eps       ncg     rms          rms(c)
DAV:   1    -0.104784907612E+03   -0.63586E-02   -0.10930E-01    64   0.180E+00    0.805E-02
DAV:   2    -0.104784987143E+03   -0.79531E-04   -0.13551E-03    64   0.178E-01    0.537E-02
DAV:   3    -0.104784995882E+03   -0.87391E-05   -0.85912E-05    48   0.500E-02
  22 F= -.10523936E+03 E0= -.10523936E+03  d E =-.711207E-02
       N       E                     dE             d eps       ncg     rms          rms(c)
DAV:   1    -0.104791466139E+03   -0.64790E-02   -0.12591E-01    64   0.193E+00    0.879E-02
DAV:   2    -0.104791557323E+03   -0.91184E-04   -0.15912E-03    64   0.193E-01    0.586E-02
DAV:   3    -0.104791564008E+03   -0.66849E-05   -0.10550E-04    48   0.554E-02
  23 F= -.10524666E+03 E0= -.10524666E+03  d E =-.729802E-02
       N       E                     dE             d eps       ncg     rms          rms(c)
DAV:   1    -0.104798028813E+03   -0.64715E-02   -0.14210E-01    64   0.205E+00    0.941E-02
DAV:   2    -0.104798134946E+03   -0.10613E-03   -0.17764E-03    64   0.204E-01    0.627E-02
DAV:   3    -0.104798142126E+03   -0.71805E-05   -0.11062E-04    48   0.570E-02
  24 F= -.10525402E+03 E0= -.10525402E+03  d E =-.736630E-02
       N       E                     dE             d eps       ncg     rms          rms(c)
DAV:   1    -0.104804508922E+03   -0.63740E-02   -0.16199E-01    80   0.218E+00    0.102E-01
DAV:   2    -0.104804636452E+03   -0.12753E-03   -0.21573E-03    72   0.223E-01    0.688E-02
DAV:   3    -0.104804638049E+03   -0.15972E-05   -0.15690E-04    48   0.643E-02
  25 F= -.10526135E+03 E0= -.10526135E+03  d E =-.732936E-02
       N       E                     dE             d eps       ncg     rms          rms(c)
DAV:   1    -0.104810721296E+03   -0.60848E-02   -0.17772E-01    64   0.228E+00    0.107E-01
DAV:   2    -0.104810867333E+03   -0.14604E-03   -0.22959E-03    72   0.230E-01    0.724E-02
DAV:   3    -0.104810871916E+03   -0.45824E-05   -0.14155E-04    48   0.611E-02
  26 F= -.10526847E+03 E0= -.10526847E+03  d E =-.712088E-02
       N       E                     dE             d eps       ncg     rms          rms(c)
DAV:   1    -0.104816439638E+03   -0.55723E-02   -0.21206E-01    64   0.249E+00    0.118E-01
DAV:   2    -0.104816630735E+03   -0.19110E-03   -0.33530E-03    64   0.277E-01    0.800E-02
DAV:   3    -0.104816616383E+03    0.14352E-04   -0.26824E-04    56   0.863E-02
  27 F= -.10527512E+03 E0= -.10527512E+03  d E =-.664460E-02
       N       E                     dE             d eps       ncg     rms          rms(c)
DAV:   1    -0.104820262580E+03   -0.36318E-02   -0.23750E-01    80   0.264E+00    0.122E-01
DAV:   2    -0.104820556300E+03   -0.29372E-03   -0.48076E-03    80   0.324E-01    0.876E-02
DAV:   3    -0.104820494055E+03    0.62245E-04   -0.32842E-04    56   0.964E-02
  28 F= -.10527980E+03 E0= -.10527980E+03  d E =-.468349E-02
       N       E                     dE             d eps       ncg     rms          rms(c)
DAV:   1    -0.104822847944E+03   -0.22916E-02   -0.16287E-01    80   0.215E+00    0.101E-01
DAV:   2    -0.104823070605E+03   -0.22266E-03   -0.46496E-03    80   0.306E-01    0.750E-02
DAV:   3    -0.104822991083E+03    0.79522E-04   -0.32284E-04    64   0.914E-02
  29 F= -.10528269E+03 E0= -.10528269E+03  d E =-.288904E-02
       N       E                     dE             d eps       ncg     rms          rms(c)
DAV:   1    -0.104824293216E+03   -0.12226E-02   -0.22306E-02    72   0.812E-01    0.382E-02
DAV:   2    -0.104824344582E+03   -0.51366E-04   -0.63597E-04    80   0.114E-01
  30 F= -.10528421E+03 E0= -.10528421E+03  d E =-.152377E-02
       N       E                     dE             d eps       ncg     rms          rms(c)
DAV:   1    -0.104825535258E+03   -0.12420E-02   -0.15258E-02    64   0.665E-01    0.429E-02
DAV:   2    -0.104825541138E+03   -0.58806E-05   -0.19196E-04    56   0.696E-02
  31 F= -.10528566E+03 E0= -.10528566E+03  d E =-.144324E-02
       N       E                     dE             d eps       ncg     rms          rms(c)
DAV:   1    -0.104826842466E+03   -0.13072E-02   -0.20447E-02    64   0.769E-01    0.391E-02
DAV:   2    -0.104826857337E+03   -0.14870E-04   -0.26198E-04    56   0.801E-02
  32 F= -.10528727E+03 E0= -.10528727E+03  d E =-.161134E-02
       N       E                     dE             d eps       ncg     rms          rms(c)
DAV:   1    -0.104828228035E+03   -0.13856E-02   -0.27293E-02    64   0.885E-01    0.466E-02
DAV:   2    -0.104828248243E+03   -0.20208E-04   -0.37940E-04    64   0.933E-02
  33 F= -.10528900E+03 E0= -.10528900E+03  d E =-.172911E-02
       N       E                     dE             d eps       ncg     rms          rms(c)
DAV:   1    -0.104829667737E+03   -0.14397E-02   -0.35462E-02    64   0.101E+00    0.535E-02
DAV:   2    -0.104829691837E+03   -0.24100E-04   -0.48422E-04    64   0.105E-01
  34 F= -.10529082E+03 E0= -.10529082E+03  d E =-.182357E-02
       N       E                     dE             d eps       ncg     rms          rms(c)
DAV:   1    -0.104831140187E+03   -0.14724E-02   -0.44152E-02    64   0.113E+00    0.600E-02
DAV:   2    -0.104831170102E+03   -0.29915E-04   -0.60592E-04    64   0.117E-01
  35 F= -.10529272E+03 E0= -.10529272E+03  d E =-.189954E-02
       N       E                     dE             d eps       ncg     rms          rms(c)
DAV:   1    -0.104832609835E+03   -0.14696E-02   -0.54095E-02    64   0.124E+00    0.663E-02
DAV:   2    -0.104832647138E+03   -0.37303E-04   -0.74578E-04    64   0.130E-01
  36 F= -.10529465E+03 E0= -.10529465E+03  d E =-.193112E-02
       N       E                     dE             d eps       ncg     rms          rms(c)
DAV:   1    -0.104834030101E+03   -0.14203E-02   -0.64986E-02    64   0.136E+00    0.725E-02
DAV:   2    -0.104834076871E+03   -0.46771E-04   -0.91132E-04    72   0.143E-01
  37 F= -.10529657E+03 E0= -.10529657E+03  d E =-.191960E-02
       N       E                     dE             d eps       ncg     rms          rms(c)
DAV:   1    -0.104835421521E+03   -0.13914E-02   -0.77667E-02    64   0.149E+00    0.779E-02
DAV:   2    -0.104835478261E+03   -0.56740E-04   -0.10732E-03    72   0.156E-01    0.525E-02
DAV:   3    -0.104835484724E+03   -0.64630E-05   -0.84166E-05    48   0.473E-02
  38 F= -.10529849E+03 E0= -.10529849E+03  d E =-.191852E-02
       N       E                     dE             d eps       ncg     rms          rms(c)
DAV:   1    -0.104836663809E+03   -0.11855E-02   -0.90599E-02    80   0.160E+00    0.775E-02
DAV:   2    -0.104836749179E+03   -0.85370E-04   -0.13809E-03    72   0.175E-01    0.532E-02
DAV:   3    -0.104836751291E+03   -0.21114E-05   -0.83266E-05    48   0.470E-02
  39 F= -.10530031E+03 E0= -.10530031E+03  d E =-.181603E-02
       N       E                     dE             d eps       ncg     rms          rms(c)
DAV:   1    -0.104837784237E+03   -0.10351E-02   -0.10972E-01    64   0.175E+00    0.834E-02
DAV:   2    -0.104837889081E+03   -0.10484E-03   -0.16854E-03    72   0.195E-01    0.578E-02
DAV:   3    -0.104837886105E+03    0.29760E-05   -0.10663E-04    48   0.544E-02
  40 F= -.10530197E+03 E0= -.10530197E+03  d E =-.166607E-02
       N       E                     dE             d eps       ncg     rms          rms(c)
DAV:   1    -0.104838514800E+03   -0.62572E-03   -0.12246E-01    64   0.187E+00    0.887E-02
DAV:   2    -0.104838639150E+03   -0.12435E-03   -0.20634E-03    72   0.216E-01    0.621E-02
DAV:   3    -0.104838631608E+03    0.75421E-05   -0.14651E-04    48   0.638E-02
  41 F= -.10530333E+03 E0= -.10530333E+03  d E =-.135373E-02
       N       E                     dE             d eps       ncg     rms          rms(c)
DAV:   1    -0.104838674300E+03   -0.35150E-04   -0.15457E-01    64   0.213E+00    0.940E-02
DAV:   2    -0.104838875684E+03   -0.20138E-03   -0.34210E-03    80   0.282E-01    0.699E-02
DAV:   3    -0.104838827953E+03    0.47732E-04   -0.25779E-04    88   0.842E-02
  42 F= -.10530383E+03 E0= -.10530383E+03  d E =-.501461E-03
       N       E                     dE             d eps       ncg     rms          rms(c)
DAV:   1    -0.104839464235E+03   -0.58855E-03   -0.50908E-02    64   0.124E+00    0.541E-02
DAV:   2    -0.104839554782E+03   -0.90548E-04   -0.15238E-03    80   0.178E-01    0.411E-02
DAV:   3    -0.104839535421E+03    0.19361E-04   -0.73269E-05    56   0.464E-02
  43 F= -.10530479E+03 E0= -.10530479E+03  d E =-.964460E-03
       N       E                     dE             d eps       ncg     rms          rms(c)
DAV:   1    -0.104839716198E+03   -0.16142E-03   -0.12116E-02    64   0.584E-01    0.300E-02
DAV:   2    -0.104839726849E+03   -0.10651E-04   -0.20008E-04    56   0.694E-02
  44 F= -.10530512E+03 E0= -.10530512E+03  d E =-.329532E-03
       N       E                     dE             d eps       ncg     rms          rms(c)
DAV:   1    -0.104839865712E+03   -0.14951E-03   -0.15834E-02    64   0.663E-01    0.347E-02
DAV:   2    -0.104839873905E+03   -0.81932E-05   -0.21565E-04    56   0.717E-02
  45 F= -.10530545E+03 E0= -.10530545E+03  d E =-.326112E-03
       N       E                     dE             d eps       ncg     rms          rms(c)
DAV:   1    -0.104839986474E+03   -0.12076E-03   -0.21509E-02    64   0.772E-01    0.386E-02
DAV:   2    -0.104839998761E+03   -0.12287E-04   -0.29248E-04    56   0.831E-02
  46 F= -.10530578E+03 E0= -.10530578E+03  d E =-.329302E-03
       N       E                     dE             d eps       ncg     rms          rms(c)
DAV:   1    -0.104840081417E+03   -0.94943E-04   -0.28043E-02    64   0.880E-01    0.440E-02
DAV:   2    -0.104840099288E+03   -0.17870E-04   -0.40257E-04    64   0.950E-02
  47 F= -.10530610E+03 E0= -.10530610E+03  d E =-.323206E-03
       N       E                     dE             d eps       ncg     rms          rms(c)
DAV:   1    -0.104840139389E+03   -0.57971E-04   -0.35814E-02    64   0.994E-01    0.501E-02
DAV:   2    -0.104840161221E+03   -0.21832E-04   -0.51105E-04    72   0.106E-01
  48 F= -.10530641E+03 E0= -.10530641E+03  d E =-.306626E-03
       N       E                     dE             d eps       ncg     rms          rms(c)
DAV:   1    -0.104840218622E+03   -0.79233E-04   -0.44061E-02    64   0.110E+00    0.549E-02
DAV:   2    -0.104840244757E+03   -0.26135E-04   -0.61505E-04    64   0.117E-01
  49 F= -.10530674E+03 E0= -.10530674E+03  d E =-.336095E-03
       N       E                     dE             d eps       ncg     rms          rms(c)
DAV:   1    -0.104840273856E+03   -0.55234E-04   -0.52645E-02    64   0.120E+00    0.604E-02
DAV:   2    -0.104840305828E+03   -0.31972E-04   -0.74473E-04    72   0.128E-01
  50 F= -.10530707E+03 E0= -.10530707E+03  d E =-.330653E-03
       N       E                     dE             d eps       ncg     rms          rms(c)
DAV:   1    -0.104840379969E+03   -0.10611E-03   -0.63726E-02    64   0.132E+00    0.647E-02
DAV:   2    -0.104840419027E+03   -0.39058E-04   -0.89053E-04    64   0.142E-01
  51 F= -.10530744E+03 E0= -.10530744E+03  d E =-.369287E-03
       N       E                     dE             d eps       ncg     rms          rms(c)
DAV:   1    -0.104840449721E+03   -0.69752E-04   -0.72407E-02    80   0.141E+00    0.699E-02
DAV:   2    -0.104840496326E+03   -0.46606E-04   -0.10572E-03    80   0.153E-01    0.473E-02
DAV:   3    -0.104840497488E+03   -0.11612E-05   -0.81834E-05    48   0.495E-02
  52 F= -.10530780E+03 E0= -.10530780E+03  d E =-.362326E-03
       N       E                     dE             d eps       ncg     rms          rms(c)
DAV:   1    -0.104840571460E+03   -0.75134E-04   -0.87480E-02    64   0.156E+00    0.663E-02
DAV:   2    -0.104840657820E+03   -0.86359E-04   -0.15260E-03    72   0.187E-01    0.479E-02
DAV:   3    -0.104840643890E+03    0.13930E-04   -0.99991E-05    64   0.556E-02
  53 F= -.10530813E+03 E0= -.10530813E+03  d E =-.322615E-03
       N       E                     dE             d eps       ncg     rms          rms(c)
DAV:   1    -0.104840542757E+03    0.11506E-03   -0.69811E-02    64   0.144E+00    0.604E-02
DAV:   2    -0.104840633923E+03   -0.91166E-04   -0.16833E-03    72   0.191E-01    0.460E-02
DAV:   3    -0.104840610235E+03    0.23687E-04   -0.95943E-05    48   0.538E-02
  54 F= -.10530833E+03 E0= -.10530833E+03  d E =-.205037E-03
       N       E                     dE             d eps       ncg     rms          rms(c)
DAV:   1    -0.104840992146E+03   -0.35822E-03   -0.13359E-02    64   0.631E-01    0.275E-02
DAV:   2    -0.104841014460E+03   -0.22314E-04   -0.38476E-04    80   0.908E-02
  55 F= -.10530873E+03 E0= -.10530873E+03  d E =-.398801E-03
       N       E                     dE             d eps       ncg     rms          rms(c)
DAV:   1    -0.104841151322E+03   -0.15918E-03   -0.83792E-03    80   0.481E-01    0.287E-02
DAV:   2    -0.104841150881E+03    0.44116E-06   -0.11905E-04    56   0.542E-02
  56 F= -.10530891E+03 E0= -.10530891E+03  d E =-.180602E-03
       N       E                     dE             d eps       ncg     rms          rms(c)
DAV:   1    -0.104841292024E+03   -0.14070E-03   -0.10294E-02    64   0.530E-01    0.236E-02
DAV:   2    -0.104841296428E+03   -0.44041E-05   -0.13496E-04    56   0.560E-02
  57 F= -.10530913E+03 E0= -.10530913E+03  d E =-.216485E-03
       N       E                     dE             d eps       ncg     rms          rms(c)
DAV:   1    -0.104841476491E+03   -0.18447E-03   -0.13902E-02    64   0.612E-01    0.287E-02
DAV:   2    -0.104841481364E+03   -0.48735E-05   -0.18218E-04    64   0.648E-02
  58 F= -.10530938E+03 E0= -.10530938E+03  d E =-.255063E-03
       N       E                     dE             d eps       ncg     rms          rms(c)
DAV:   1    -0.104841718056E+03   -0.24157E-03   -0.17968E-02    64   0.696E-01    0.316E-02
DAV:   2    -0.104841724448E+03   -0.63915E-05   -0.22547E-04    56   0.727E-02
  59 F= -.10530970E+03 E0= -.10530970E+03  d E =-.315001E-03
       N       E                     dE             d eps       ncg     rms          rms(c)
DAV:   1    -0.104842013810E+03   -0.29575E-03   -0.22490E-02    64   0.777E-01    0.357E-02
DAV:   2    -0.104842022123E+03   -0.83131E-05   -0.28741E-04    64   0.813E-02
  60 F= -.10531007E+03 E0= -.10531007E+03  d E =-.371957E-03
       N       E                     dE             d eps       ncg     rms          rms(c)
DAV:   1    -0.104842410555E+03   -0.39674E-03   -0.27389E-02    64   0.859E-01    0.386E-02
DAV:   2    -0.104842420717E+03   -0.10162E-04   -0.34217E-04    64   0.892E-02
  61 F= -.10531054E+03 E0= -.10531054E+03  d E =-.465826E-03
       N       E                     dE             d eps       ncg     rms          rms(c)
DAV:   1    -0.104842927542E+03   -0.51699E-03   -0.31702E-02    64   0.926E-01    0.417E-02
DAV:   2    -0.104842940786E+03   -0.13244E-04   -0.40704E-04    72   0.954E-02
  62 F= -.10531111E+03 E0= -.10531111E+03  d E =-.578312E-03
       N       E                     dE             d eps       ncg     rms          rms(c)
DAV:   1    -0.104843577396E+03   -0.64985E-03   -0.36626E-02    64   0.999E-01    0.453E-02
DAV:   2    -0.104843591917E+03   -0.14521E-04   -0.46063E-04    72   0.102E-01
  63 F= -.10531181E+03 E0= -.10531181E+03  d E =-.691642E-03
       N       E                     dE             d eps       ncg     rms          rms(c)
DAV:   1    -0.104844376923E+03   -0.79953E-03   -0.40371E-02    64   0.105E+00    0.480E-02
DAV:   2    -0.104844391540E+03   -0.14617E-04   -0.50810E-04    72   0.107E-01
  64 F= -.10531264E+03 E0= -.10531264E+03  d E =-.831834E-03
       N       E                     dE             d eps       ncg     rms          rms(c)
DAV:   1    -0.104845367312E+03   -0.99039E-03   -0.43611E-02    64   0.110E+00    0.496E-02
DAV:   2    -0.104845385123E+03   -0.17812E-04   -0.53010E-04    72   0.110E-01
  65 F= -.10531362E+03 E0= -.10531362E+03  d E =-.980485E-03
       N       E                     dE             d eps       ncg     rms          rms(c)
DAV:   1    -0.104846477085E+03   -0.11098E-02   -0.44585E-02    64   0.112E+00    0.518E-02
DAV:   2    -0.104846492468E+03   -0.15383E-04   -0.57360E-04    64   0.115E-01
  66 F= -.10531472E+03 E0= -.10531472E+03  d E =-.110601E-02
       N       E                     dE             d eps       ncg     rms          rms(c)
DAV:   1    -0.104847680344E+03   -0.12033E-02   -0.46376E-02    64   0.116E+00    0.516E-02
DAV:   2    -0.104847715704E+03   -0.35360E-04   -0.68731E-04    80   0.127E-01
  67 F= -.10531581E+03 E0= -.10531581E+03  d E =-.108692E-02
       N       E                     dE             d eps       ncg     rms          rms(c)
DAV:   1    -0.104848263162E+03   -0.58282E-03   -0.36816E-02    64   0.105E+00    0.496E-02
DAV:   2    -0.104848304525E+03   -0.41363E-04   -0.99131E-04    72   0.146E-01
  68 F= -.10531648E+03 E0= -.10531648E+03  d E =-.669681E-03
       N       E                     dE             d eps       ncg     rms          rms(c)
DAV:   1    -0.104848668912E+03   -0.40575E-03   -0.43631E-03    80   0.363E-01    0.206E-02
DAV:   2    -0.104848682539E+03   -0.13627E-04   -0.15827E-04    72   0.574E-02
  69 F= -.10531680E+03 E0= -.10531680E+03  d E =-.316405E-03
       N       E                     dE             d eps       ncg     rms          rms(c)
DAV:   1    -0.104849050024E+03   -0.38111E-03   -0.30958E-03    64   0.306E-01    0.170E-02
DAV:   2    -0.104849052027E+03   -0.20031E-05   -0.48500E-05    56   0.359E-02
  70 F= -.10531711E+03 E0= -.10531711E+03  d E =-.313001E-03
       N       E                     dE             d eps       ncg     rms          rms(c)
DAV:   1    -0.104849427766E+03   -0.37774E-03   -0.25929E-03    64   0.277E-01    0.133E-02
DAV:   2    -0.104849428569E+03   -0.80252E-06   -0.29865E-05    48   0.279E-02
  71 F= -.10531746E+03 E0= -.10531746E+03  d E =-.345387E-03
       N       E                     dE             d eps       ncg     rms          rms(c)
DAV:   1    -0.104849861891E+03   -0.43412E-03   -0.34582E-03    64   0.319E-01    0.152E-02
DAV:   2    -0.104849862625E+03   -0.73462E-06   -0.39498E-05    64   0.321E-02
  72 F= -.10531785E+03 E0= -.10531785E+03  d E =-.398537E-03
       N       E                     dE             d eps       ncg     rms          rms(c)
DAV:   1    -0.104850357436E+03   -0.49555E-03   -0.43458E-03    64   0.358E-01    0.170E-02
DAV:   2    -0.104850358207E+03   -0.77180E-06   -0.48160E-05    48   0.355E-02
  73 F= -.10531830E+03 E0= -.10531830E+03  d E =-.449452E-03
       N       E                     dE             d eps       ncg     rms          rms(c)
DAV:   1    -0.104850904998E+03   -0.54756E-03   -0.52664E-03    64   0.395E-01    0.191E-02
DAV:   2    -0.104850905838E+03   -0.84020E-06   -0.59128E-05    48   0.394E-02
  74 F= -.10531880E+03 E0= -.10531880E+03  d E =-.496013E-03
       N       E                     dE             d eps       ncg     rms          rms(c)
DAV:   1    -0.104851503486E+03   -0.59849E-03   -0.61981E-03    64   0.429E-01    0.210E-02
DAV:   2    -0.104851504596E+03   -0.11104E-05   -0.69573E-05    48   0.428E-02
  75 F= -.10531934E+03 E0= -.10531934E+03  d E =-.536519E-03
       N       E                     dE             d eps       ncg     rms          rms(c)
DAV:   1    -0.104852141376E+03   -0.63789E-03   -0.71340E-03    64   0.461E-01    0.229E-02
DAV:   2    -0.104852142855E+03   -0.14781E-05   -0.80916E-05    48   0.462E-02
  76 F= -.10531991E+03 E0= -.10531991E+03  d E =-.569404E-03
