       N       E                     dE             d eps       ncg     rms          rms(c)
DAV:   1     0.360781207270E+02    0.36078E+02   -0.23182E+03    48   0.328E+02
DAV:   2    -0.285785018281E+02   -0.64657E+02   -0.64657E+02    36   0.106E+02
DAV:   3    -0.360920684019E+02   -0.75136E+01   -0.75136E+01    36   0.419E+01
DAV:   4    -0.361388823410E+02   -0.46814E-01   -0.46814E-01    24   0.349E+00
DAV:   5    -0.361397011771E+02   -0.81884E-03   -0.81884E-03    24   0.433E-01    0.985E+00
DAV:   6    -0.328296636743E+02    0.33100E+01   -0.73448E+00    36   0.135E+01    0.518E+00
DAV:   7    -0.320796370738E+02    0.75003E+00   -0.20236E+00    36   0.679E+00    0.233E+00
DAV:   8    -0.319621484874E+02    0.11749E+00   -0.14822E-01    36   0.236E+00    0.272E-01
DAV:   9    -0.319564225452E+02    0.57259E-02   -0.10015E-02    36   0.482E-01    0.198E-01
DAV:  10    -0.319504759616E+02    0.59466E-02   -0.39830E-03    24   0.367E-01    0.709E-02
DAV:  11    -0.319496629132E+02    0.81305E-03   -0.19997E-03    36   0.196E-01    0.491E-02
DAV:  12    -0.319554491121E+02   -0.57862E-02   -0.12955E-03    36   0.162E-01    0.324E-02
DAV:  13    -0.319578079267E+02   -0.23588E-02   -0.18356E-04    24   0.618E-02    0.176E-02
DAV:  14    -0.319621910440E+02   -0.43831E-02   -0.93294E-04    24   0.124E-01    0.114E-02
DAV:  15    -0.319628335461E+02   -0.64250E-03   -0.64909E-05    36   0.319E-02    0.804E-03
DAV:  16    -0.319634790316E+02   -0.64549E-03   -0.64107E-05    24   0.325E-02    0.255E-03
DAV:  17    -0.319636325153E+02   -0.15348E-03   -0.52976E-06    48   0.949E-03    0.204E-03
DAV:  18    -0.319638057418E+02   -0.17323E-03   -0.70637E-06    36   0.983E-03    0.143E-03
DAV:  19    -0.319638423752E+02   -0.36633E-04   -0.52923E-07    36   0.364E-03
   1 F= -.31996754E+02 E0= -.31996754E+02  d E =-.319968E+02
       N       E                     dE             d eps       ncg     rms          rms(c)
DAV:   1    -0.319239393480E+02    0.39866E-01   -0.24810E+00    24   0.120E+01    0.584E-01
DAV:   2    -0.319231413282E+02    0.79802E-03   -0.34240E-02    36   0.127E+00    0.306E-01
DAV:   3    -0.319214611455E+02    0.16802E-02   -0.33949E-03    24   0.412E-01    0.118E-01
DAV:   4    -0.319213854135E+02    0.75732E-04   -0.11362E-03    36   0.211E-01    0.335E-02
DAV:   5    -0.319213928103E+02   -0.73968E-05   -0.87826E-05    36   0.596E-02
   2 F= -.31954380E+02 E0= -.31954380E+02  d E =0.423742E-01
       N       E                     dE             d eps       ncg     rms          rms(c)
DAV:   1    -0.319681402206E+02   -0.46755E-01   -0.16357E+00    24   0.980E+00    0.466E-01
DAV:   2    -0.319674018362E+02    0.73838E-03   -0.22037E-02    36   0.102E+00    0.250E-01
DAV:   3    -0.319663094124E+02    0.10924E-02   -0.23716E-03    36   0.344E-01    0.881E-02
DAV:   4    -0.319662913416E+02    0.18071E-04   -0.72993E-04    36   0.160E-01
   3 F= -.31999213E+02 E0= -.31999213E+02  d E =-.245923E-02
       N       E                     dE             d eps       ncg     rms          rms(c)
DAV:   1    -0.319680144239E+02   -0.17050E-02   -0.13471E-01    24   0.271E+00    0.150E-01
DAV:   2    -0.319674386256E+02    0.57580E-03   -0.20395E-03    36   0.338E-01    0.757E-02
DAV:   3    -0.319673591458E+02    0.79480E-04   -0.15516E-03    36   0.195E-01    0.368E-02
DAV:   4    -0.319673413858E+02    0.17760E-04   -0.37996E-05    36   0.352E-02
   4 F= -.32000810E+02 E0= -.32000810E+02  d E =-.159679E-02
       N       E                     dE             d eps       ncg     rms          rms(c)
DAV:   1    -0.319676036955E+02   -0.24455E-03   -0.57499E-03    24   0.568E-01    0.403E-02
DAV:   2    -0.319675580817E+02    0.45614E-04   -0.13178E-04    36   0.754E-02
   5 F= -.32000908E+02 E0= -.32000908E+02  d E =-.169512E-02
       N       E                     dE             d eps       ncg     rms          rms(c)
DAV:   1    -0.319680187622E+02   -0.41507E-03   -0.85310E-03    36   0.739E-01    0.262E-02
DAV:   2    -0.319680142350E+02    0.45272E-05   -0.28821E-05    36   0.377E-02
   6 F= -.32001223E+02 E0= -.32001223E+02  d E =-.315066E-03
       N       E                     dE             d eps       ncg     rms          rms(c)
DAV:   1    -0.319681546979E+02   -0.13594E-03   -0.30184E-03    24   0.452E-01    0.169E-02
DAV:   2    -0.319681534945E+02    0.12034E-05   -0.17179E-05    36   0.305E-02
   7 F= -.32001277E+02 E0= -.32001277E+02  d E =-.368800E-03
       N       E                     dE             d eps       ncg     rms          rms(c)
DAV:   1    -0.319683005123E+02   -0.14581E-03   -0.12336E-03    24   0.267E-01    0.105E-02
DAV:   2    -0.319682998516E+02    0.66074E-06   -0.18689E-05    36   0.295E-02
   8 F= -.32001388E+02 E0= -.32001388E+02  d E =-.110825E-03
       N       E                     dE             d eps       ncg     rms          rms(c)
DAV:   1    -0.319685733514E+02   -0.27284E-03   -0.11003E-02    24   0.787E-01    0.305E-02
DAV:   2    -0.319685675829E+02    0.57686E-05   -0.14102E-04    36   0.834E-02
   9 F= -.32001550E+02 E0= -.32001550E+02  d E =-.273145E-03
       N       E                     dE             d eps       ncg     rms          rms(c)
DAV:   1    -0.319685950328E+02   -0.21681E-04   -0.46309E-04    24   0.171E-01    0.860E-03
DAV:   2    -0.319685947217E+02    0.31102E-06   -0.17380E-06    24   0.106E-02
  10 F= -.32001553E+02 E0= -.32001553E+02  d E =-.276174E-03
       N       E                     dE             d eps       ncg     rms          rms(c)
DAV:   1    -0.319685919168E+02    0.31160E-05   -0.34978E-05    24   0.433E-02    0.151E-03
DAV:   2    -0.319685930084E+02   -0.10916E-05   -0.70379E-07    24   0.544E-03
  11 F= -.32001557E+02 E0= -.32001557E+02  d E =-.280028E-03
       N       E                     dE             d eps       ncg     rms          rms(c)
DAV:   1    -0.319686254348E+02   -0.33518E-04   -0.10865E-04    36   0.831E-02    0.397E-03
DAV:   2    -0.319686258893E+02   -0.45449E-06   -0.34110E-06    24   0.124E-02
  12 F= -.32001575E+02 E0= -.32001575E+02  d E =-.180115E-04
       N       E                     dE             d eps       ncg     rms          rms(c)
DAV:   1    -0.319686917809E+02   -0.66346E-04   -0.96072E-04    24   0.250E-01    0.116E-02
DAV:   2    -0.319686898284E+02    0.19525E-05   -0.28630E-05    36   0.379E-02
  13 F= -.32001595E+02 E0= -.32001595E+02  d E =-.374262E-04
