 vasp.5.4.1 05Feb16 (build Apr 21 2017 13:05:43) gamma-only                     
  
 executed on           IFC91_ompi date 2018.07.02  22:11:06
 running on   24 total cores
 distrk:  each k-point on   24 cores,    1 groups
 distr:  one band on NCORES_PER_BAND=   2 cores,   12 groups


--------------------------------------------------------------------------------------------------------


 INCAR:
 POTCAR:    PAW_PBE C 08Apr2002                   
 POTCAR:    PAW_PBE H 15Jun2001                   

 ----------------------------------------------------------------------------- 
|                                                                             |
|           W    W    AA    RRRRR   N    N  II  N    N   GGGG   !!!           |
|           W    W   A  A   R    R  NN   N  II  NN   N  G    G  !!!           |
|           W    W  A    A  R    R  N N  N  II  N N  N  G       !!!           |
|           W WW W  AAAAAA  RRRRR   N  N N  II  N  N N  G  GGG   !            |
|           WW  WW  A    A  R   R   N   NN  II  N   NN  G    G                |
|           W    W  A    A  R    R  N    N  II  N    N   GGGG   !!!           |
|                                                                             |
|      For optimal performance we recommend to set                            |
|        NCORE= 4 - approx SQRT( number of cores)                             |
|      NCORE specifies how many cores store one orbital (NPAR=cpu/NCORE).     |
|      This setting can  greatly improve the performance of VASP for DFT.     |
|      The default, NPAR=number of cores might be grossly inefficient         |
|      on modern multi-core architectures or massively parallel machines.     |
|      Do your own testing !!!!                                               |
|      Unfortunately you need to use the default for GW and RPA calculations. |
|      (for HF NCORE is supported but not extensively tested yet)             |
|                                                                             |
 ----------------------------------------------------------------------------- 

 POTCAR:    PAW_PBE C 08Apr2002                   
   VRHFIN =C: s2p2                                                              
   LEXCH  = PE                                                                  
   EATOM  =   147.1560 eV,   10.8157 Ry                                         
                                                                                
   TITEL  = PAW_PBE C 08Apr2002                                                 
   LULTRA =        F    use ultrasoft PP ?                                      
   IUNSCR =        1    unscreen: 0-lin 1-nonlin 2-no                           
   RPACOR =    1.200    partial core radius                                     
   POMASS =   12.011; ZVAL   =    4.000    mass and valenz                      
   RCORE  =    1.500    outmost cutoff radius                                   
   RWIGS  =    1.630; RWIGS  =    0.863    wigner-seitz radius (au A)           
   ENMAX  =  400.000; ENMIN  =  300.000 eV                                      
   ICORE  =        2    local potential                                         
   LCOR   =        T    correct aug charges                                     
   LPAW   =        T    paw PP                                                  
   EAUG   =  644.873                                                            
   DEXC   =    0.000                                                            
   RMAX   =    1.529    core radius for proj-oper                               
   RAUG   =    1.300    factor for augmentation sphere                          
   RDEP   =    1.501    radius for radial grids                                 
   RDEPT  =    1.300    core radius for aug-charge                              
                                                                                
   Atomic configuration                                                         
    4 entries                                                                   
     n  l   j            E        occ.                                          
     1  0  0.50      -273.3789   2.0000                                         
     2  0  0.50       -13.7508   2.0000                                         
     2  1  0.50        -5.2854   2.0000                                         
     3  2  1.50        -5.4423   0.0000                                         
   Description                                                                  
     l       E           TYP  RCUT    TYP  RCUT                                 
     0    -13.7508458     23  1.200                                             
     0     -8.2022199     23  1.200                                             
     1     -5.2854383     23  1.500                                             
     1     34.0145650     23  1.500                                             
     2     -5.4423304      7  1.500                                             
  local pseudopotential read in
  partial core-charges read in
  partial kinetic energy density read in
  atomic valenz-charges read in
  non local Contribution for L=           0  read in
    real space projection operators read in
  non local Contribution for L=           0  read in
    real space projection operators read in
  non local Contribution for L=           1  read in
    real space projection operators read in
  non local Contribution for L=           1  read in
    real space projection operators read in
    PAW grid and wavefunctions read in
 
   number of l-projection  operators is LMAX  =           4
   number of lm-projection operators is LMMAX =           8
 
 POTCAR:    PAW_PBE H 15Jun2001                   
   VRHFIN =H: ultrasoft test                                                    
   LEXCH  = PE                                                                  
   EATOM  =    12.4884 eV,    0.9179 Ry                                         
                                                                                
   TITEL  = PAW_PBE H 15Jun2001                                                 
   LULTRA =        F    use ultrasoft PP ?                                      
   IUNSCR =        0    unscreen: 0-lin 1-nonlin 2-no                           
   RPACOR =    0.000    partial core radius                                     
   POMASS =    1.000; ZVAL   =    1.000    mass and valenz                      
   RCORE  =    1.100    outmost cutoff radius                                   
   RWIGS  =    0.700; RWIGS  =    0.370    wigner-seitz radius (au A)           
   ENMAX  =  250.000; ENMIN  =  200.000 eV                                      
   RCLOC  =    0.701    cutoff for local pot                                    
   LCOR   =        T    correct aug charges                                     
   LPAW   =        T    paw PP                                                  
   EAUG   =  400.000                                                            
   RMAX   =    1.123    core radius for proj-oper                               
   RAUG   =    1.200    factor for augmentation sphere                          
   RDEP   =    1.112    radius for radial grids                                 
   RDEPT  =    0.926    core radius for aug-charge                              
                                                                                
   Atomic configuration                                                         
    2 entries                                                                   
     n  l   j            E        occ.                                          
     1  0  0.50        -6.4927   1.0000                                         
     2  1  0.50        -3.4015   0.0000                                         
   Description                                                                  
     l       E           TYP  RCUT    TYP  RCUT                                 
     0     -6.4927494     23  1.100                                             
     0      6.8029130     23  1.100                                             
     1     -4.0817478     23  1.100                                             
  local pseudopotential read in
  atomic valenz-charges read in
  non local Contribution for L=           0  read in
    real space projection operators read in
  non local Contribution for L=           0  read in
    real space projection operators read in
  non local Contribution for L=           1  read in
    real space projection operators read in
    PAW grid and wavefunctions read in
 
   number of l-projection  operators is LMAX  =           3
   number of lm-projection operators is LMMAX =           5
 

 ----------------------------------------------------------------------------- 
|                                                                             |
|  ADVICE TO THIS USER RUNNING 'VASP/VAMP'   (HEAR YOUR MASTER'S VOICE ...):  |
|                                                                             |
|      You have a (more or less) 'small supercell' and for smaller cells      |
|      it is recommended  to use the reciprocal-space projection scheme!      |
|      The real space optimization is not  efficient for small cells and it   |
|      is also less accurate ...                                              |
|      Therefore set LREAL=.FALSE. in the  INCAR file                         |
|                                                                             |
 ----------------------------------------------------------------------------- 

 Optimization of the real space projectors (new method)

 maximal supplied QI-value         = 25.13
 optimisation between [QCUT,QGAM] = [ 10.05, 20.36] = [ 28.30,116.06] Ry 
 Optimized for a Real-space Cutoff    1.51 Angstroem

   l    n(q)    QCUT    max X(q) W(low)/X(q) W(high)/X(q)  e(spline) 
   0      9    10.053   115.676    0.19E-03    0.21E-03    0.38E-06
   0      9    10.053    87.132    0.19E-03    0.21E-03    0.38E-06
   1      9    10.053     4.429    0.87E-04    0.11E-03    0.39E-06
   1      9    10.053     2.733    0.59E-04    0.62E-04    0.43E-06
 Optimization of the real space projectors (new method)

 maximal supplied QI-value         = 34.20
 optimisation between [QCUT,QGAM] = [  9.92, 20.18] = [ 27.55,114.04] Ry 
 Optimized for a Real-space Cutoff    1.34 Angstroem

   l    n(q)    QCUT    max X(q) W(low)/X(q) W(high)/X(q)  e(spline) 
   0      8     9.919    19.460    0.16E-03    0.20E-03    0.36E-06
   0      8     9.919    12.209    0.16E-03    0.20E-03    0.35E-06
   1      8     9.919     4.655    0.19E-03    0.46E-03    0.40E-06
  PAW_PBE C 08Apr2002                   :
 energy of atom  1       EATOM= -147.1560
 kinetic energy error for atom=    0.0288 (will be added to EATOM!!)
  PAW_PBE H 15Jun2001                   :
 energy of atom  2       EATOM=  -12.4884
 kinetic energy error for atom=    0.0098 (will be added to EATOM!!)
 
 
 POSCAR:  C  H                                   
  positions in cartesian coordinates
  No initial velocities read in
 exchange correlation table for  LEXCH =        8
   RHO(1)=    0.500       N(1)  =     2000
   RHO(2)=  100.500       N(2)  =     4000
 


--------------------------------------------------------------------------------------------------------


 ion  position               nearest neighbor table
   1  0.099  0.097  0.095-   3 1.09   4 1.09   2 1.34
   2  0.166  0.099  0.095-   6 1.09   5 1.09   1 1.34
   3  0.070  0.130  0.127-   1 1.09
   4  0.072  0.062  0.063-   1 1.09
   5  0.193  0.133  0.127-   2 1.09
   6  0.195  0.066  0.063-   2 1.09
 
  LATTYP: Found a simple cubic cell.
 ALAT       =    20.0000000000
  
  Lattice vectors:
  
 A1 = (  20.0000000000,   0.0000000000,   0.0000000000)
 A2 = (   0.0000000000,  20.0000000000,   0.0000000000)
 A3 = (   0.0000000000,   0.0000000000,  20.0000000000)


Analysis of symmetry for initial positions (statically):
=====================================================================
 Subroutine PRICEL returns:
 Original cell was already a primitive cell.
 

 Routine SETGRP: Setting up the symmetry group for a 
 simple cubic supercell.


 Subroutine GETGRP returns: Found  1 space group operations
 (whereof  1 operations were pure point group operations)
 out of a pool of 48 trial point group operations.


The static configuration has the point symmetry C_1 .


Analysis of symmetry for dynamics (positions and initial velocities):
=====================================================================
 Subroutine PRICEL returns:
 Original cell was already a primitive cell.
 

 Routine SETGRP: Setting up the symmetry group for a 
 simple cubic supercell.


 Subroutine GETGRP returns: Found  1 space group operations
 (whereof  1 operations were pure point group operations)
 out of a pool of 48 trial point group operations.


The dynamic configuration has the point symmetry C_1 .


 Subroutine INISYM returns: Found  1 space group operations
 (whereof  1 operations are pure point group operations),
 and found     1 'primitive' translations

 
 
 KPOINTS: Gamma-point only                        
  k-points in reciprocal lattice
Space group operators:
 irot       det(A)        alpha          n_x          n_y          n_z        tau_x        tau_y        tau_z
    1     1.000000     0.000000     1.000000     0.000000     0.000000     0.000000     0.000000     0.000000


--------------------------------------------------------------------------------------------------------




 Dimension of arrays:
   k-points           NKPTS =      1   k-points in BZ     NKDIM =      1   number of bands    NBANDS=     12
   number of dos      NEDOS =    301   number of ions     NIONS =      6
   non local maximal  LDIM  =      4   non local SUM 2l+1 LMDIM =      8
   total plane-waves  NPLWV = ******
   max r-space proj   IRMAX =   4982   max aug-charges    IRDMAX=   4247
   dimension x,y,z NGX =   140 NGY =  140 NGZ =  140
   dimension x,y,z NGXF=   280 NGYF=  280 NGZF=  280
   support grid    NGXF=   280 NGYF=  280 NGZF=  280
   ions per type =               2   4
 NGX,Y,Z   is equivalent  to a cutoff of  11.64, 11.64, 11.64 a.u.
 NGXF,Y,Z  is equivalent  to a cutoff of  23.27, 23.27, 23.27 a.u.


 I would recommend the setting:
   dimension x,y,z NGX =   130 NGY =  130 NGZ =  130
 SYSTEM =  basalPlane                              
 POSCAR =   C  H                                   

 Startparameter for this run:
   NWRITE =      2    write-flag & timer
   PREC   = accura    normal or accurate (medium, high low for compatibility)
   ISTART =      0    job   : 0-new  1-cont  2-samecut
   ICHARG =      2    charge: 1-file 2-atom 10-const
   ISPIN  =      1    spin polarized calculation?
   LNONCOLLINEAR =      F non collinear calculations
   LSORBIT =      F    spin-orbit coupling
   INIWAV =      1    electr: 0-lowe 1-rand  2-diag
   LASPH  =      F    aspherical Exc in radial PAW
   METAGGA=      F    non-selfconsistent MetaGGA calc.

 Electronic Relaxation 1
   ENCUT  =  400.0 eV  29.40 Ry    5.42 a.u.  32.61 32.61 32.61*2*pi/ulx,y,z
   ENINI  =  400.0     initial cutoff
   ENAUG  =  645.0 eV  augmentation charge cutoff
   NELM   =    200;   NELMIN=  2; NELMDL= -5     # of ELM steps 
   EDIFF  = 0.1E-03   stopping-criterion for ELM
   LREAL  =      T    real-space projection
   NLSPLINE    = F    spline interpolate recip. space projectors
   LCOMPAT=      F    compatible to vasp.4.4
   GGA_COMPAT  = T    GGA compatible to vasp.4.4-vasp.4.6
   LMAXPAW     = -100 max onsite density
   LMAXMIX     =    2 max onsite mixed and CHGCAR
   VOSKOWN=      0    Vosko Wilk Nusair interpolation
   ROPT   =   -0.00025  -0.00025
 Ionic relaxation
   EDIFFG = -.2E-01   stopping-criterion for IOM
   NSW    =    300    number of steps for IOM
   NBLOCK =      1;   KBLOCK =    300    inner block; outer block 
   IBRION =      2    ionic relax: 0-MD 1-quasi-New 2-CG
   NFREE  =      1    steps in history (QN), initial steepest desc. (CG)
   ISIF   =      2    stress and relaxation
   IWAVPR =     11    prediction:  0-non 1-charg 2-wave 3-comb
   ISYM   =      2    0-nonsym 1-usesym 2-fastsym
   LCORR  =      T    Harris-Foulkes like correction to forces

   POTIM  = 0.5000    time-step for ionic-motion
   TEIN   =    0.0    initial temperature
   TEBEG  =    0.0;   TEEND  =   0.0 temperature during run
   SMASS  =  -3.00    Nose mass-parameter (am)
   estimated Nose-frequenzy (Omega)   =  0.10E-29 period in steps =****** mass=  -0.914E-26a.u.
   SCALEE = 1.0000    scale energy and forces
   NPACO  =    256;   APACO  = 16.0  distance and # of slots for P.C.
   PSTRESS=    0.0 pullay stress

  Mass of Ions in am
   POMASS =  12.01  1.00
  Ionic Valenz
   ZVAL   =   4.00  1.00
  Atomic Wigner-Seitz radii
   RWIGS  =  -1.00 -1.00
  virtual crystal weights 
   VCA    =   1.00  1.00
   NELECT =      12.0000    total number of electrons
   NUPDOWN=      -1.0000    fix difference up-down

 DOS related values:
   EMIN   =  10.00;   EMAX   =-10.00  energy-range for DOS
   EFERMI =   0.00
   ISMEAR =     0;   SIGMA  =   0.05  broadening in eV -4-tet -1-fermi 0-gaus

 Electronic relaxation 2 (details)
   IALGO  =     38    algorithm
   LDIAG  =      T    sub-space diagonalisation (order eigenvalues)
   LSUBROT=      F    optimize rotation matrix (better conditioning)
   TURBO    =      0    0=normal 1=particle mesh
   IRESTART =      0    0=no restart 2=restart with 2 vectors
   NREBOOT  =      0    no. of reboots
   NMIN     =      0    reboot dimension
   EREF     =   0.00    reference energy to select bands
   IMIX   =      4    mixing-type and parameters
     AMIX     =   0.40;   BMIX     =  1.00
     AMIX_MAG =   1.60;   BMIX_MAG =  1.00
     AMIN     =   0.10
     WC   =   100.;   INIMIX=   1;  MIXPRE=   1;  MAXMIX= -45

 Intra band minimization:
   WEIMIN = 0.0010     energy-eigenvalue tresh-hold
   EBREAK =  0.21E-05  absolut break condition
   DEPER  =   0.30     relativ break condition  

   TIME   =   0.40     timestep for ELM

  volume/ion in A,a.u.               =    1333.33      8997.78
  Fermi-wavevector in a.u.,A,eV,Ry     =   0.187401  0.354137  0.477825  0.035119
  Thomas-Fermi vector in A             =   0.923081
 
 Write flags
   LWAVE  =      F    write WAVECAR
   LCHARG =      F    write CHGCAR
   LVTOT  =      F    write LOCPOT, total local potential
   LVHAR  =      F    write LOCPOT, Hartree potential only
   LELF   =      F    write electronic localiz. function (ELF)
   LORBIT =      0    0 simple, 1 ext, 2 COOP (PROOUT)


 Dipole corrections
   LMONO  =      F    monopole corrections only (constant potential shift)
   LDIPOL =      T    correct potential (dipole corrections)
   IDIPOL =      4    1-x, 2-y, 3-z, 4-all directions 
   EPSILON=  1.0000000 bulk dielectric constant

 Exchange correlation treatment:
   GGA     =    --    GGA type
   LEXCH   =     8    internal setting for exchange type
   VOSKOWN=      0    Vosko Wilk Nusair interpolation
   LHFCALC =     F    Hartree Fock is set to
   LHFONE  =     F    Hartree Fock one center treatment
   AEXX    =    0.0000 exact exchange contribution

 Linear response parameters
   LEPSILON=     F    determine dielectric tensor
   LRPA    =     F    only Hartree local field effects (RPA)
   LNABLA  =     F    use nabla operator in PAW spheres
   LVEL    =     F    velocity operator in full k-point grid
   LINTERFAST=   F  fast interpolation
   KINTER  =     0    interpolate to denser k-point grid
   CSHIFT  =0.1000    complex shift for real part using Kramers Kronig
   OMEGAMAX=  -1.0    maximum frequency
   DEG_THRESHOLD= 0.2000000E-02 threshold for treating states as degnerate
   RTIME   =    0.100 relaxation time in fs

 Orbital magnetization related:
   ORBITALMAG=     F  switch on orbital magnetization
   LCHIMAG   =     F  perturbation theory with respect to B field
   DQ        =  0.001000  dq finite difference perturbation B field



--------------------------------------------------------------------------------------------------------


 conjugate gradient relaxation of ions
 charge density and potential will be updated during run
 non-spin polarized calculation
 Variant of blocked Davidson
 Davidson routine will perform the subspace rotation
 perform sub-space diagonalisation
    after iterative eigenvector-optimisation
 modified Broyden-mixing scheme, WC =      100.0
 initial mixing is a Kerker type mixing with AMIX =  0.4000 and BMIX =      1.0000
 Hartree-type preconditioning will be used
 using additional bands            6
 real space projection scheme for non local part
 use partial core corrections
 calculate Harris-corrections to forces 
   (improved forces if not selfconsistent)
 use gradient corrections 
 use of overlap-Matrix (Vanderbilt PP)
 Gauss-broadening in eV      SIGMA  =   0.05


--------------------------------------------------------------------------------------------------------


  energy-cutoff  :      400.00
  volume of cell :     8000.00
      direct lattice vectors                 reciprocal lattice vectors
    20.000000000  0.000000000  0.000000000     0.050000000  0.000000000  0.000000000
     0.000000000 20.000000000  0.000000000     0.000000000  0.050000000  0.000000000
     0.000000000  0.000000000 20.000000000     0.000000000  0.000000000  0.050000000

  length of vectors
    20.000000000 20.000000000 20.000000000     0.050000000  0.050000000  0.050000000


 
 k-points in units of 2pi/SCALE and weight: Gamma-point only                        
   0.00000000  0.00000000  0.00000000       1.000
 
 k-points in reciprocal lattice and weights: Gamma-point only                        
   0.00000000  0.00000000  0.00000000       1.000
 
 position of ions in fractional coordinates (direct lattice) 
   0.09932991  0.09696851  0.09499004
   0.16607991  0.09866851  0.09499004
   0.07047991  0.13011851  0.12684004
   0.07222991  0.06236851  0.06314004
   0.19322991  0.13326851  0.12684004
   0.19497991  0.06551851  0.06314004
 
 position of ions in cartesian coordinates  (Angst):
   1.98659818  1.93937013  1.89980086
   3.32159818  1.97337013  1.89980086
   1.40959818  2.60237013  2.53680086
   1.44459818  1.24737013  1.26280086
   3.86459818  2.66537013  2.53680086
   3.89959818  1.31037013  1.26280086
 


--------------------------------------------------------------------------------------------------------


 use parallel FFT for wavefunctions z direction half grid
 k-point  1 :   0.0000 0.0000 0.0000  plane waves:   72583

 maximum and minimum number of plane-waves per node :     36292    36291

 maximum number of plane-waves:     72583
 maximum index in each direction: 
   IXMAX=   32   IYMAX=   32   IZMAX=   32
   IXMIN=  -32   IYMIN=  -32   IZMIN=    0

 NGX is ok and might be reduce to 130
 NGY is ok and might be reduce to 130
 NGZ is ok and might be reduce to 130

 real space projection operators:
  total allocation   :       1122.06 KBytes
  max/ min on nodes  :        561.60        560.46


 parallel 3D FFT for wavefunctions:
    minimum data exchange during FFTs selected (reduces bandwidth)
 parallel 3D FFT for charge:
    minimum data exchange during FFTs selected (reduces bandwidth)


 total amount of memory used by VASP on root node   199389. kBytes
========================================================================

   base      :      30000. kBytes
   nonlr-proj:        690. kBytes
   fftplans  :      60125. kBytes
   grid      :     107990. kBytes
   one-center:          4. kBytes
   wavefun   :        580. kBytes
 
     INWAV:  cpu time    0.0000: real time    0.0000
 Broyden mixing: mesh for mixing (old mesh)
   NGX = 65   NGY = 65   NGZ = 65
  (NGX  =280   NGY  =280   NGZ  =280)
  gives a total of 274625 points

 initial charge density was supplied:
 charge density of overlapping atoms calculated
 number of electron      12.0000000 magnetization 
 keeping initial charge density in first step


--------------------------------------------------------------------------------------------------------


 Maximum index for non-local projection operator         2400
 Maximum index for augmentation-charges          293 (set IRDMAX)


--------------------------------------------------------------------------------------------------------


 First call to EWALD:  gamma=   0.089
 Maximum number of real-space cells 3x 3x 3
 Maximum number of reciprocal cells 3x 3x 3

 FEWALD executed in parallel
    FEWALD:  cpu time    0.0016: real time    0.0024


----------------------------------------- Iteration    1(   1)  ---------------------------------------


    POTLOK:  cpu time    1.1091: real time    1.1094
    SETDIJ:  cpu time    0.0063: real time    0.0063
     EDDAV:  cpu time    0.7892: real time    0.7894
       DOS:  cpu time    0.0012: real time    0.0012
    --------------------------------------------
      LOOP:  cpu time    1.9192: real time    1.9328

 eigenvalue-minimisations  :    48
 total energy-change (2. order) : 0.3607812E+02  (-0.2318216E+03)
 number of electron      12.0000000 magnetization 
 augmentation part       12.0000000 magnetization 

 DIPCOR: dipole corrections for dipol
 direction  1 min pos   198, direction  2 min pos   196, direction  3 min pos   170,
 dipolmoment           0.000069      0.000101      0.000005 electrons x Angstroem
 Tr[quadrupol]        10.546771

 energy correction for charged system         0.000000 eV
 dipol+quadrupol energy correction           -0.000000 eV
 added-field ion interaction          0.000027 eV  (added to PSCEN)


 Free energy of the ion-electron system (eV)
  ---------------------------------------------------
  alpha Z        PSCENC =         0.07625396
  Ewald energy   TEWEN  =       383.90353186
  -Hartree energ DENC   =      -597.73960302
  -exchange      EXHF   =         0.00000000
  -V(xc)+E(xc)   XCENC  =        34.51124023
  PAW double counting   =       225.58020250     -226.75452526
  entropy T*S    EENTRO =        -0.00000000
  eigenvalues    EBANDS =      -127.66795795
  atomic energy  EATOM  =       344.16897840
  Solvation  Ediel_sol  =         0.00000000
  ---------------------------------------------------
  free energy    TOTEN  =        36.07812073 eV

  energy without entropy =       36.07812073  energy(sigma->0) =       36.07812073


--------------------------------------------------------------------------------------------------------




----------------------------------------- Iteration    1(   2)  ---------------------------------------


     EDDAV:  cpu time    0.6681: real time    0.6682
       DOS:  cpu time    0.0006: real time    0.0006
    --------------------------------------------
      LOOP:  cpu time    0.6697: real time    0.6718

 eigenvalue-minimisations  :    36
 total energy-change (2. order) :-0.6465662E+02  (-0.6465662E+02)
 number of electron      12.0000000 magnetization 
 augmentation part       12.0000000 magnetization 

 DIPCOR: dipole corrections for dipol
 direction  1 min pos   198, direction  2 min pos   196, direction  3 min pos   170,
 dipolmoment           0.000069      0.000101      0.000005 electrons x Angstroem
 Tr[quadrupol]        10.546771

 energy correction for charged system         0.000000 eV
 dipol+quadrupol energy correction           -0.000000 eV
 added-field ion interaction          0.000027 eV  (added to PSCEN)


 Free energy of the ion-electron system (eV)
  ---------------------------------------------------
  alpha Z        PSCENC =         0.07625396
  Ewald energy   TEWEN  =       383.90353186
  -Hartree energ DENC   =      -597.73960302
  -exchange      EXHF   =         0.00000000
  -V(xc)+E(xc)   XCENC  =        34.51124023
  PAW double counting   =       225.58020250     -226.75452526
  entropy T*S    EENTRO =        -0.00000000
  eigenvalues    EBANDS =      -192.32458050
  atomic energy  EATOM  =       344.16897840
  Solvation  Ediel_sol  =         0.00000000
  ---------------------------------------------------
  free energy    TOTEN  =       -28.57850183 eV

  energy without entropy =      -28.57850183  energy(sigma->0) =      -28.57850183


--------------------------------------------------------------------------------------------------------




----------------------------------------- Iteration    1(   3)  ---------------------------------------


     EDDAV:  cpu time    0.6432: real time    0.6432
       DOS:  cpu time    0.0005: real time    0.0005
    --------------------------------------------
      LOOP:  cpu time    0.6448: real time    0.6477

 eigenvalue-minimisations  :    36
 total energy-change (2. order) :-0.7513567E+01  (-0.7513567E+01)
 number of electron      12.0000000 magnetization 
 augmentation part       12.0000000 magnetization 

 DIPCOR: dipole corrections for dipol
 direction  1 min pos   198, direction  2 min pos   196, direction  3 min pos   170,
 dipolmoment           0.000069      0.000101      0.000005 electrons x Angstroem
 Tr[quadrupol]        10.546771

 energy correction for charged system         0.000000 eV
 dipol+quadrupol energy correction           -0.000000 eV
 added-field ion interaction          0.000027 eV  (added to PSCEN)


 Free energy of the ion-electron system (eV)
  ---------------------------------------------------
  alpha Z        PSCENC =         0.07625396
  Ewald energy   TEWEN  =       383.90353186
  -Hartree energ DENC   =      -597.73960302
  -exchange      EXHF   =         0.00000000
  -V(xc)+E(xc)   XCENC  =        34.51124023
  PAW double counting   =       225.58020250     -226.75452526
  entropy T*S    EENTRO =        -0.00000000
  eigenvalues    EBANDS =      -199.83814708
  atomic energy  EATOM  =       344.16897840
  Solvation  Ediel_sol  =         0.00000000
  ---------------------------------------------------
  free energy    TOTEN  =       -36.09206840 eV

  energy without entropy =      -36.09206840  energy(sigma->0) =      -36.09206840


--------------------------------------------------------------------------------------------------------




----------------------------------------- Iteration    1(   4)  ---------------------------------------


     EDDAV:  cpu time    0.4730: real time    0.4730
       DOS:  cpu time    0.0006: real time    0.0006
    --------------------------------------------
      LOOP:  cpu time    0.4745: real time    0.4758

 eigenvalue-minimisations  :    24
 total energy-change (2. order) :-0.4681394E-01  (-0.4681394E-01)
 number of electron      12.0000000 magnetization 
 augmentation part       12.0000000 magnetization 

 DIPCOR: dipole corrections for dipol
 direction  1 min pos   198, direction  2 min pos   196, direction  3 min pos   170,
 dipolmoment           0.000069      0.000101      0.000005 electrons x Angstroem
 Tr[quadrupol]        10.546771

 energy correction for charged system         0.000000 eV
 dipol+quadrupol energy correction           -0.000000 eV
 added-field ion interaction          0.000027 eV  (added to PSCEN)


 Free energy of the ion-electron system (eV)
  ---------------------------------------------------
  alpha Z        PSCENC =         0.07625396
  Ewald energy   TEWEN  =       383.90353186
  -Hartree energ DENC   =      -597.73960302
  -exchange      EXHF   =         0.00000000
  -V(xc)+E(xc)   XCENC  =        34.51124023
  PAW double counting   =       225.58020250     -226.75452526
  entropy T*S    EENTRO =        -0.00000000
  eigenvalues    EBANDS =      -199.88496102
  atomic energy  EATOM  =       344.16897840
  Solvation  Ediel_sol  =         0.00000000
  ---------------------------------------------------
  free energy    TOTEN  =       -36.13888234 eV

  energy without entropy =      -36.13888234  energy(sigma->0) =      -36.13888234


--------------------------------------------------------------------------------------------------------




----------------------------------------- Iteration    1(   5)  ---------------------------------------


     EDDAV:  cpu time    0.4627: real time    0.4627
       DOS:  cpu time    0.0005: real time    0.0005
    CHARGE:  cpu time    0.1822: real time    0.1822
    MIXING:  cpu time    0.0275: real time    0.0275
    --------------------------------------------
      LOOP:  cpu time    0.6738: real time    0.6755

 eigenvalue-minimisations  :    24
 total energy-change (2. order) :-0.8188361E-03  (-0.8188364E-03)
 number of electron      11.9999998 magnetization 
 augmentation part        0.3200746 magnetization 

 DIPCOR: dipole corrections for dipol
 direction  1 min pos   198, direction  2 min pos   196, direction  3 min pos   170,
 dipolmoment           0.000069      0.000101      0.000005 electrons x Angstroem
 Tr[quadrupol]        10.546771

 energy correction for charged system         0.000000 eV
 dipol+quadrupol energy correction           -0.000000 eV
 added-field ion interaction          0.000027 eV  (added to PSCEN)


 Broyden mixing:
  rms(total) = 0.98526E+00    rms(broyden)= 0.98503E+00
  rms(prec ) = 0.10912E+01
  weight for this iteration     100.00

 Free energy of the ion-electron system (eV)
  ---------------------------------------------------
  alpha Z        PSCENC =         0.07625396
  Ewald energy   TEWEN  =       383.90353186
  -Hartree energ DENC   =      -597.73960302
  -exchange      EXHF   =         0.00000000
  -V(xc)+E(xc)   XCENC  =        34.51124023
  PAW double counting   =       225.58020250     -226.75452526
  entropy T*S    EENTRO =        -0.00000000
  eigenvalues    EBANDS =      -199.88577985
  atomic energy  EATOM  =       344.16897840
  Solvation  Ediel_sol  =         0.00000000
  ---------------------------------------------------
  free energy    TOTEN  =       -36.13970118 eV

  energy without entropy =      -36.13970118  energy(sigma->0) =      -36.13970118


--------------------------------------------------------------------------------------------------------




----------------------------------------- Iteration    1(   6)  ---------------------------------------


    POTLOK:  cpu time    1.0030: real time    1.0039
    SETDIJ:  cpu time    0.0061: real time    0.0061
     EDDAV:  cpu time    0.6295: real time    0.6295
       DOS:  cpu time    0.0008: real time    0.0008
    CHARGE:  cpu time    0.1723: real time    0.1723
    MIXING:  cpu time    0.0258: real time    0.0258
    --------------------------------------------
      LOOP:  cpu time    1.8385: real time    1.8411

 eigenvalue-minimisations  :    36
 total energy-change (2. order) : 0.3310038E+01  (-0.7344827E+00)
 number of electron      11.9999997 magnetization 
 augmentation part        0.2894839 magnetization 

 DIPCOR: dipole corrections for dipol
 direction  1 min pos   184, direction  2 min pos   185, direction  3 min pos   185,
 dipolmoment          -0.006473     -0.013180     -0.013394 electrons x Angstroem
 Tr[quadrupol]         9.837592

 energy correction for charged system         0.000000 eV
 dipol+quadrupol energy correction           -0.000001 eV
 added-field ion interaction         -0.003165 eV  (added to PSCEN)


 Broyden mixing:
  rms(total) = 0.51812E+00    rms(broyden)= 0.51803E+00
  rms(prec ) = 0.55746E+00
  weight for this iteration     100.00

 eigenvalues of (default mixing * dielectric matrix)
  average eigenvalue GAMMA=   1.5330
  1.5330

 Free energy of the ion-electron system (eV)
  ---------------------------------------------------
  alpha Z        PSCENC =         0.07306010
  Ewald energy   TEWEN  =       383.90353186
  -Hartree energ DENC   =      -624.97503612
  -exchange      EXHF   =         0.00000000
  -V(xc)+E(xc)   XCENC  =        36.00039688
  PAW double counting   =       433.58069112     -435.00611868
  entropy T*S    EENTRO =        -0.00000000
  eigenvalues    EBANDS =      -170.57516725
  atomic energy  EATOM  =       344.16897840
  Solvation  Ediel_sol  =         0.00000000
  ---------------------------------------------------
  free energy    TOTEN  =       -32.82966367 eV

  energy without entropy =      -32.82966367  energy(sigma->0) =      -32.82966367


--------------------------------------------------------------------------------------------------------




----------------------------------------- Iteration    1(   7)  ---------------------------------------


    POTLOK:  cpu time    0.9980: real time    0.9980
    SETDIJ:  cpu time    0.0063: real time    0.0063
     EDDAV:  cpu time    0.6278: real time    0.6278
       DOS:  cpu time    0.0007: real time    0.0007
    CHARGE:  cpu time    0.1710: real time    0.1710
    MIXING:  cpu time    0.0294: real time    0.0294
    --------------------------------------------
      LOOP:  cpu time    1.8344: real time    1.8362

 eigenvalue-minimisations  :    36
 total energy-change (2. order) : 0.7500266E+00  (-0.2023639E+00)
 number of electron      11.9999997 magnetization 
 augmentation part        0.2732188 magnetization 

 DIPCOR: dipole corrections for dipol
 direction  1 min pos   174, direction  2 min pos   163, direction  3 min pos   157,
 dipolmoment           0.007917      0.008390      0.016217 electrons x Angstroem
 Tr[quadrupol]         9.085758

 energy correction for charged system         0.000000 eV
 dipol+quadrupol energy correction           -0.000001 eV
 added-field ion interaction         -0.001616 eV  (added to PSCEN)


 Broyden mixing:
  rms(total) = 0.23312E+00    rms(broyden)= 0.23304E+00
  rms(prec ) = 0.24464E+00
  weight for this iteration     100.00

 eigenvalues of (default mixing * dielectric matrix)
  average eigenvalue GAMMA=   1.8772
  1.4953  2.2591

 Free energy of the ion-electron system (eV)
  ---------------------------------------------------
  alpha Z        PSCENC =         0.07460989
  Ewald energy   TEWEN  =       383.90353186
  -Hartree energ DENC   =      -644.21884572
  -exchange      EXHF   =         0.00000000
  -V(xc)+E(xc)   XCENC  =        37.23472972
  PAW double counting   =       695.53515407     -697.05040969
  entropy T*S    EENTRO =        -0.00000000
  eigenvalues    EBANDS =      -151.72738560
  atomic energy  EATOM  =       344.16897840
  Solvation  Ediel_sol  =         0.00000000
  ---------------------------------------------------
  free energy    TOTEN  =       -32.07963707 eV

  energy without entropy =      -32.07963707  energy(sigma->0) =      -32.07963707


--------------------------------------------------------------------------------------------------------




----------------------------------------- Iteration    1(   8)  ---------------------------------------


    POTLOK:  cpu time    1.0190: real time    1.0196
    SETDIJ:  cpu time    0.0095: real time    0.0095
     EDDAV:  cpu time    0.6334: real time    0.6333
       DOS:  cpu time    0.0005: real time    0.0005
    CHARGE:  cpu time    0.1760: real time    0.1760
    MIXING:  cpu time    0.0272: real time    0.0272
    --------------------------------------------
      LOOP:  cpu time    1.8668: real time    1.8706

 eigenvalue-minimisations  :    36
 total energy-change (2. order) : 0.1174886E+00  (-0.1482210E-01)
 number of electron      11.9999997 magnetization 
 augmentation part        0.2716088 magnetization 

 DIPCOR: dipole corrections for dipol
 direction  1 min pos   161, direction  2 min pos   172, direction  3 min pos   163,
 dipolmoment           0.039109     -0.007516      0.009310 electrons x Angstroem
 Tr[quadrupol]         8.496018

 energy correction for charged system         0.000000 eV
 dipol+quadrupol energy correction           -0.000006 eV
 added-field ion interaction         -0.004789 eV  (added to PSCEN)


 Broyden mixing:
  rms(total) = 0.27244E-01    rms(broyden)= 0.27219E-01
  rms(prec ) = 0.38770E-01
  weight for this iteration     100.00

 eigenvalues of (default mixing * dielectric matrix)
  average eigenvalue GAMMA=   1.5790
  2.2239  1.0845  1.4285

 Free energy of the ion-electron system (eV)
  ---------------------------------------------------
  alpha Z        PSCENC =         0.07143153
  Ewald energy   TEWEN  =       383.90353186
  -Hartree energ DENC   =      -650.76449238
  -exchange      EXHF   =         0.00000000
  -V(xc)+E(xc)   XCENC  =        37.76708226
  PAW double counting   =       880.01924082     -881.49171205
  entropy T*S    EENTRO =        -0.00000000
  eigenvalues    EBANDS =      -145.63620893
  atomic energy  EATOM  =       344.16897840
  Solvation  Ediel_sol  =         0.00000000
  ---------------------------------------------------
  free energy    TOTEN  =       -31.96214849 eV

  energy without entropy =      -31.96214849  energy(sigma->0) =      -31.96214849


--------------------------------------------------------------------------------------------------------




----------------------------------------- Iteration    1(   9)  ---------------------------------------


    POTLOK:  cpu time    1.0159: real time    1.0159
    SETDIJ:  cpu time    0.0095: real time    0.0095
     EDDAV:  cpu time    0.6310: real time    0.6310
       DOS:  cpu time    0.0005: real time    0.0005
    CHARGE:  cpu time    0.1720: real time    0.1720
    MIXING:  cpu time    0.0319: real time    0.0319
    --------------------------------------------
      LOOP:  cpu time    1.8621: real time    1.8642

 eigenvalue-minimisations  :    36
 total energy-change (2. order) : 0.5725942E-02  (-0.1001542E-02)
 number of electron      11.9999997 magnetization 
 augmentation part        0.2706719 magnetization 

 DIPCOR: dipole corrections for dipol
 direction  1 min pos   178, direction  2 min pos   166, direction  3 min pos   174,
 dipolmoment           0.000324      0.005089     -0.013169 electrons x Angstroem
 Tr[quadrupol]         8.253424

 energy correction for charged system         0.000000 eV
 dipol+quadrupol energy correction           -0.000001 eV
 added-field ion interaction         -0.000624 eV  (added to PSCEN)


 Broyden mixing:
  rms(total) = 0.19777E-01    rms(broyden)= 0.19773E-01
  rms(prec ) = 0.29003E-01
  weight for this iteration     100.00

 eigenvalues of (default mixing * dielectric matrix)
  average eigenvalue GAMMA=   1.8862
  1.2274  1.2274  2.5451  2.5451

 Free energy of the ion-electron system (eV)
  ---------------------------------------------------
  alpha Z        PSCENC =         0.07560247
  Ewald energy   TEWEN  =       383.90353186
  -Hartree energ DENC   =      -652.27596207
  -exchange      EXHF   =         0.00000000
  -V(xc)+E(xc)   XCENC  =        37.82503245
  PAW double counting   =       878.43449543     -879.90959684
  entropy T*S    EENTRO =        -0.00000000
  eigenvalues    EBANDS =      -144.17850424
  atomic energy  EATOM  =       344.16897840
  Solvation  Ediel_sol  =         0.00000000
  ---------------------------------------------------
  free energy    TOTEN  =       -31.95642255 eV

  energy without entropy =      -31.95642255  energy(sigma->0) =      -31.95642255


--------------------------------------------------------------------------------------------------------




----------------------------------------- Iteration    1(  10)  ---------------------------------------


    POTLOK:  cpu time    1.0190: real time    1.0192
    SETDIJ:  cpu time    0.0091: real time    0.0091
     EDDAV:  cpu time    0.4518: real time    0.4519
       DOS:  cpu time    0.0005: real time    0.0005
    CHARGE:  cpu time    0.1741: real time    0.1741
    MIXING:  cpu time    0.0307: real time    0.0307
    --------------------------------------------
      LOOP:  cpu time    1.6862: real time    1.6887

 eigenvalue-minimisations  :    24
 total energy-change (2. order) : 0.5946584E-02  (-0.3982978E-03)
 number of electron      11.9999997 magnetization 
 augmentation part        0.2705203 magnetization 

 DIPCOR: dipole corrections for dipol
 direction  1 min pos   183, direction  2 min pos   170, direction  3 min pos   175,
 dipolmoment          -0.011748     -0.003499     -0.015250 electrons x Angstroem
 Tr[quadrupol]         7.719829

 energy correction for charged system         0.000000 eV
 dipol+quadrupol energy correction           -0.000001 eV
 added-field ion interaction         -0.001133 eV  (added to PSCEN)


 Broyden mixing:
  rms(total) = 0.70893E-02    rms(broyden)= 0.70885E-02
  rms(prec ) = 0.12900E-01
  weight for this iteration     100.00

 eigenvalues of (default mixing * dielectric matrix)
  average eigenvalue GAMMA=   1.8000
  3.0308  2.3270  1.1428  1.1428  1.3568

 Free energy of the ion-electron system (eV)
  ---------------------------------------------------
  alpha Z        PSCENC =         0.07509215
  Ewald energy   TEWEN  =       383.90353186
  -Hartree energ DENC   =      -654.59406076
  -exchange      EXHF   =         0.00000000
  -V(xc)+E(xc)   XCENC  =        37.89552464
  PAW double counting   =       864.01080622     -865.47662615
  entropy T*S    EENTRO =        -0.00000000
  eigenvalues    EBANDS =      -141.93372233
  atomic energy  EATOM  =       344.16897840
  Solvation  Ediel_sol  =         0.00000000
  ---------------------------------------------------
  free energy    TOTEN  =       -31.95047596 eV

  energy without entropy =      -31.95047596  energy(sigma->0) =      -31.95047596


--------------------------------------------------------------------------------------------------------




----------------------------------------- Iteration    1(  11)  ---------------------------------------


    POTLOK:  cpu time    1.4782: real time    1.9394
    SETDIJ:  cpu time    0.0045: real time    0.0045
     EDDAV:  cpu time    0.6193: real time    0.6193
       DOS:  cpu time    0.0007: real time    0.0007
    CHARGE:  cpu time    0.1746: real time    0.1746
    MIXING:  cpu time    0.0291: real time    0.0291
    --------------------------------------------
      LOOP:  cpu time    2.3076: real time    2.7716

 eigenvalue-minimisations  :    36
 total energy-change (2. order) : 0.8130484E-03  (-0.1999734E-03)
 number of electron      11.9999997 magnetization 
 augmentation part        0.2700044 magnetization 

 DIPCOR: dipole corrections for dipol
 direction  1 min pos   171, direction  2 min pos   176, direction  3 min pos   166,
 dipolmoment           0.015795     -0.015201      0.003173 electrons x Angstroem
 Tr[quadrupol]         7.492289

 energy correction for charged system         0.000000 eV
 dipol+quadrupol energy correction           -0.000002 eV
 added-field ion interaction         -0.001511 eV  (added to PSCEN)


 Broyden mixing:
  rms(total) = 0.49146E-02    rms(broyden)= 0.49137E-02
  rms(prec ) = 0.88245E-02
  weight for this iteration     100.00

 eigenvalues of (default mixing * dielectric matrix)
  average eigenvalue GAMMA=   2.1137
  4.4290  2.6610  2.1640  1.3547  1.0369  1.0369

 Free energy of the ion-electron system (eV)
  ---------------------------------------------------
  alpha Z        PSCENC =         0.07471399
  Ewald energy   TEWEN  =       383.90353186
  -Hartree energ DENC   =      -655.71792906
  -exchange      EXHF   =         0.00000000
  -V(xc)+E(xc)   XCENC  =        37.93994228
  PAW double counting   =       867.23148252     -868.69843483
  entropy T*S    EENTRO =        -0.00000000
  eigenvalues    EBANDS =      -140.85194807
  atomic energy  EATOM  =       344.16897840
  Solvation  Ediel_sol  =         0.00000000
  ---------------------------------------------------
  free energy    TOTEN  =       -31.94966291 eV

  energy without entropy =      -31.94966291  energy(sigma->0) =      -31.94966291


--------------------------------------------------------------------------------------------------------




----------------------------------------- Iteration    1(  12)  ---------------------------------------


    POTLOK:  cpu time    1.0226: real time    1.0226
    SETDIJ:  cpu time    0.0043: real time    0.0043
     EDDAV:  cpu time    0.6165: real time    0.6165
       DOS:  cpu time    0.0004: real time    0.0004
    CHARGE:  cpu time    0.1751: real time    0.1751
    MIXING:  cpu time    0.0289: real time    0.0289
    --------------------------------------------
      LOOP:  cpu time    1.8491: real time    1.8524

 eigenvalue-minimisations  :    36
 total energy-change (2. order) :-0.5786199E-02  (-0.1295487E-03)
 number of electron      11.9999997 magnetization 
 augmentation part        0.2698776 magnetization 

 DIPCOR: dipole corrections for dipol
 direction  1 min pos   177, direction  2 min pos   178, direction  3 min pos   168,
 dipolmoment           0.001697     -0.013424     -0.000561 electrons x Angstroem
 Tr[quadrupol]         7.090094

 energy correction for charged system         0.000000 eV
 dipol+quadrupol energy correction           -0.000001 eV
 added-field ion interaction         -0.000848 eV  (added to PSCEN)


 Broyden mixing:
  rms(total) = 0.32398E-02    rms(broyden)= 0.32396E-02
  rms(prec ) = 0.44865E-02
  weight for this iteration     100.00

 eigenvalues of (default mixing * dielectric matrix)
  average eigenvalue GAMMA=   1.9916
  4.6174  2.6203  2.3403  1.2710  1.2504  0.9207  0.9207

 Free energy of the ion-electron system (eV)
  ---------------------------------------------------
  alpha Z        PSCENC =         0.07537836
  Ewald energy   TEWEN  =       383.90353186
  -Hartree energ DENC   =      -656.66803146
  -exchange      EXHF   =         0.00000000
  -V(xc)+E(xc)   XCENC  =        37.95172836
  PAW double counting   =       860.91098027     -862.37883937
  entropy T*S    EENTRO =        -0.00000000
  eigenvalues    EBANDS =      -139.91917552
  atomic energy  EATOM  =       344.16897840
  Solvation  Ediel_sol  =         0.00000000
  ---------------------------------------------------
  free energy    TOTEN  =       -31.95544911 eV

  energy without entropy =      -31.95544911  energy(sigma->0) =      -31.95544911


--------------------------------------------------------------------------------------------------------




----------------------------------------- Iteration    1(  13)  ---------------------------------------


    POTLOK:  cpu time    1.0237: real time    1.0237
    SETDIJ:  cpu time    0.0042: real time    0.0042
     EDDAV:  cpu time    0.4554: real time    0.4554
       DOS:  cpu time    0.0006: real time    0.0006
    CHARGE:  cpu time    0.1748: real time    0.1748
    MIXING:  cpu time    0.0300: real time    0.0300
    --------------------------------------------
      LOOP:  cpu time    1.6900: real time    1.6931

 eigenvalue-minimisations  :    24
 total energy-change (2. order) :-0.2358815E-02  (-0.1835593E-04)
 number of electron      11.9999997 magnetization 
 augmentation part        0.2698270 magnetization 

 DIPCOR: dipole corrections for dipol
 direction  1 min pos   169, direction  2 min pos   174, direction  3 min pos   166,
 dipolmoment           0.010830     -0.006686      0.001879 electrons x Angstroem
 Tr[quadrupol]         7.024026

 energy correction for charged system         0.000000 eV
 dipol+quadrupol energy correction           -0.000001 eV
 added-field ion interaction         -0.000903 eV  (added to PSCEN)


 Broyden mixing:
  rms(total) = 0.17585E-02    rms(broyden)= 0.17583E-02
  rms(prec ) = 0.30256E-02
  weight for this iteration     100.00

 eigenvalues of (default mixing * dielectric matrix)
  average eigenvalue GAMMA=   2.2787
  5.5929  3.5936  2.3632  2.2531  1.3421  1.1039  0.9903  0.9903

 Free energy of the ion-electron system (eV)
  ---------------------------------------------------
  alpha Z        PSCENC =         0.07532347
  Ewald energy   TEWEN  =       383.90353186
  -Hartree energ DENC   =      -656.77597584
  -exchange      EXHF   =         0.00000000
  -V(xc)+E(xc)   XCENC  =        37.95253323
  PAW double counting   =       863.16594200     -864.63379679
  entropy T*S    EENTRO =        -0.00000000
  eigenvalues    EBANDS =      -139.81434426
  atomic energy  EATOM  =       344.16897840
  Solvation  Ediel_sol  =         0.00000000
  ---------------------------------------------------
  free energy    TOTEN  =       -31.95780793 eV

  energy without entropy =      -31.95780793  energy(sigma->0) =      -31.95780793


--------------------------------------------------------------------------------------------------------




----------------------------------------- Iteration    1(  14)  ---------------------------------------


    POTLOK:  cpu time    1.0311: real time    1.0313
    SETDIJ:  cpu time    0.0041: real time    0.0041
     EDDAV:  cpu time    0.4486: real time    0.4486
       DOS:  cpu time    0.0006: real time    0.0006
    CHARGE:  cpu time    0.1731: real time    0.1734
    MIXING:  cpu time    0.0305: real time    0.0305
    --------------------------------------------
      LOOP:  cpu time    1.6894: real time    1.6920

 eigenvalue-minimisations  :    24
 total energy-change (2. order) :-0.4383117E-02  (-0.9329436E-04)
 number of electron      11.9999997 magnetization 
 augmentation part        0.2698348 magnetization 

 DIPCOR: dipole corrections for dipol
 direction  1 min pos   160, direction  2 min pos   170, direction  3 min pos   164,
 dipolmoment           0.006370     -0.000817      0.001787 electrons x Angstroem
 Tr[quadrupol]         6.860810

 energy correction for charged system         0.000000 eV
 dipol+quadrupol energy correction           -0.000000 eV
 added-field ion interaction         -0.000798 eV  (added to PSCEN)


 Broyden mixing:
  rms(total) = 0.11352E-02    rms(broyden)= 0.11352E-02
  rms(prec ) = 0.15021E-02
  weight for this iteration     100.00

 eigenvalues of (default mixing * dielectric matrix)
  average eigenvalue GAMMA=   2.2453
  6.0863  3.8157  2.5119  2.2312  1.3497  1.0680  1.0680  1.0382  1.0382

 Free energy of the ion-electron system (eV)
  ---------------------------------------------------
  alpha Z        PSCENC =         0.07542915
  Ewald energy   TEWEN  =       383.90353186
  -Hartree energ DENC   =      -656.85459197
  -exchange      EXHF   =         0.00000000
  -V(xc)+E(xc)   XCENC  =        37.94349011
  PAW double counting   =       864.90942193     -866.37651831
  entropy T*S    EENTRO =        -0.00000000
  eigenvalues    EBANDS =      -139.73193221
  atomic energy  EATOM  =       344.16897840
  Solvation  Ediel_sol  =         0.00000000
  ---------------------------------------------------
  free energy    TOTEN  =       -31.96219104 eV

  energy without entropy =      -31.96219104  energy(sigma->0) =      -31.96219104


--------------------------------------------------------------------------------------------------------




----------------------------------------- Iteration    1(  15)  ---------------------------------------


    POTLOK:  cpu time    1.0302: real time    1.0305
    SETDIJ:  cpu time    0.0041: real time    0.0041
     EDDAV:  cpu time    0.6137: real time    0.6139
       DOS:  cpu time    0.0006: real time    0.0006
    CHARGE:  cpu time    0.1741: real time    0.1742
    MIXING:  cpu time    0.0305: real time    0.0305
    --------------------------------------------
      LOOP:  cpu time    1.8545: real time    1.8570

 eigenvalue-minimisations  :    36
 total energy-change (2. order) :-0.6425021E-03  (-0.6490942E-05)
 number of electron      11.9999997 magnetization 
 augmentation part        0.2697872 magnetization 

 DIPCOR: dipole corrections for dipol
 direction  1 min pos   160, direction  2 min pos   152, direction  3 min pos   148,
 dipolmoment           0.003271      0.004095      0.004221 electrons x Angstroem
 Tr[quadrupol]         6.821136

 energy correction for charged system         0.000000 eV
 dipol+quadrupol energy correction           -0.000000 eV
 added-field ion interaction         -0.001352 eV  (added to PSCEN)


 Broyden mixing:
  rms(total) = 0.80377E-03    rms(broyden)= 0.80367E-03
  rms(prec ) = 0.10665E-02
  weight for this iteration     100.00

 eigenvalues of (default mixing * dielectric matrix)
  average eigenvalue GAMMA=   2.3686
  7.0321  4.3383  2.7452  2.3067  1.7907  1.2807  1.2807  1.0293  1.0293  0.8527

 Free energy of the ion-electron system (eV)
  ---------------------------------------------------
  alpha Z        PSCENC =         0.07487477
  Ewald energy   TEWEN  =       383.90353186
  -Hartree energ DENC   =      -656.88286086
  -exchange      EXHF   =         0.00000000
  -V(xc)+E(xc)   XCENC  =        37.94327817
  PAW double counting   =       864.61965285     -866.08672882
  entropy T*S    EENTRO =        -0.00000000
  eigenvalues    EBANDS =      -139.70355992
  atomic energy  EATOM  =       344.16897840
  Solvation  Ediel_sol  =         0.00000000
  ---------------------------------------------------
  free energy    TOTEN  =       -31.96283355 eV

  energy without entropy =      -31.96283355  energy(sigma->0) =      -31.96283355


--------------------------------------------------------------------------------------------------------




----------------------------------------- Iteration    1(  16)  ---------------------------------------


    POTLOK:  cpu time    1.0344: real time    1.0345
    SETDIJ:  cpu time    0.0043: real time    0.0043
     EDDAV:  cpu time    0.4477: real time    0.4478
       DOS:  cpu time    0.0006: real time    0.0006
    CHARGE:  cpu time    0.1743: real time    0.1743
    MIXING:  cpu time    0.0314: real time    0.0314
    --------------------------------------------
      LOOP:  cpu time    1.6938: real time    1.6977

 eigenvalue-minimisations  :    24
 total energy-change (2. order) :-0.6454855E-03  (-0.6410659E-05)
 number of electron      11.9999997 magnetization 
 augmentation part        0.2698011 magnetization 

 DIPCOR: dipole corrections for dipol
 direction  1 min pos   174, direction  2 min pos   161, direction  3 min pos   154,
 dipolmoment          -0.000017      0.000331      0.000392 electrons x Angstroem
 Tr[quadrupol]         6.763440

 energy correction for charged system         0.000000 eV
 dipol+quadrupol energy correction           -0.000000 eV
 added-field ion interaction         -0.000050 eV  (added to PSCEN)


 Broyden mixing:
  rms(total) = 0.25544E-03    rms(broyden)= 0.25539E-03
  rms(prec ) = 0.44282E-03
  weight for this iteration     100.00

 eigenvalues of (default mixing * dielectric matrix)
  average eigenvalue GAMMA=   2.3391
  7.2113  4.6939  2.7425  2.3590  2.1162  1.2836  1.2836  1.0856  1.0285  1.0285
  0.8972

 Free energy of the ion-electron system (eV)
  ---------------------------------------------------
  alpha Z        PSCENC =         0.07617725
  Ewald energy   TEWEN  =       383.90353186
  -Hartree energ DENC   =      -656.88540825
  -exchange      EXHF   =         0.00000000
  -V(xc)+E(xc)   XCENC  =        37.94148090
  PAW double counting   =       863.84287950     -865.30993093
  entropy T*S    EENTRO =        -0.00000000
  eigenvalues    EBANDS =      -139.70118776
  atomic energy  EATOM  =       344.16897840
  Solvation  Ediel_sol  =         0.00000000
  ---------------------------------------------------
  free energy    TOTEN  =       -31.96347903 eV

  energy without entropy =      -31.96347903  energy(sigma->0) =      -31.96347903


--------------------------------------------------------------------------------------------------------




----------------------------------------- Iteration    1(  17)  ---------------------------------------


    POTLOK:  cpu time    1.0333: real time    1.0341
    SETDIJ:  cpu time    0.0042: real time    0.0042
     EDDAV:  cpu time    0.7764: real time    0.7767
       DOS:  cpu time    0.0006: real time    0.0006
    CHARGE:  cpu time    0.1757: real time    0.1757
    MIXING:  cpu time    0.0325: real time    0.0325
    --------------------------------------------
      LOOP:  cpu time    2.0239: real time    2.0276

 eigenvalue-minimisations  :    48
 total energy-change (2. order) :-0.1534837E-03  (-0.5297554E-06)
 number of electron      11.9999997 magnetization 
 augmentation part        0.2697909 magnetization 

 DIPCOR: dipole corrections for dipol
 direction  1 min pos   177, direction  2 min pos   163, direction  3 min pos   155,
 dipolmoment          -0.000089     -0.000114     -0.000358 electrons x Angstroem
 Tr[quadrupol]         6.743065

 energy correction for charged system         0.000000 eV
 dipol+quadrupol energy correction           -0.000000 eV
 added-field ion interaction          0.000034 eV  (added to PSCEN)


 Broyden mixing:
  rms(total) = 0.20446E-03    rms(broyden)= 0.20445E-03
  rms(prec ) = 0.32157E-03
  weight for this iteration     100.00

 eigenvalues of (default mixing * dielectric matrix)
  average eigenvalue GAMMA=   2.5374
  8.1231  5.3519  3.6151  2.6712  2.3245  1.9166  1.3007  1.3007  0.9912  1.0021
  1.0021  0.8497

 Free energy of the ion-electron system (eV)
  ---------------------------------------------------
  alpha Z        PSCENC =         0.07626085
  Ewald energy   TEWEN  =       383.90353186
  -Hartree energ DENC   =      -656.89873935
  -exchange      EXHF   =         0.00000000
  -V(xc)+E(xc)   XCENC  =        37.94160111
  PAW double counting   =       863.66767014     -865.13484963
  entropy T*S    EENTRO =        -0.00000000
  eigenvalues    EBANDS =      -139.68808590
  atomic energy  EATOM  =       344.16897840
  Solvation  Ediel_sol  =         0.00000000
  ---------------------------------------------------
  free energy    TOTEN  =       -31.96363252 eV

  energy without entropy =      -31.96363252  energy(sigma->0) =      -31.96363252


--------------------------------------------------------------------------------------------------------




----------------------------------------- Iteration    1(  18)  ---------------------------------------


    POTLOK:  cpu time    1.0207: real time    1.0216
    SETDIJ:  cpu time    0.0041: real time    0.0041
     EDDAV:  cpu time    0.6160: real time    0.6161
       DOS:  cpu time    0.0007: real time    0.0007
    CHARGE:  cpu time    0.1780: real time    0.1780
    MIXING:  cpu time    0.0377: real time    0.0377
    --------------------------------------------
      LOOP:  cpu time    1.8585: real time    1.8622

 eigenvalue-minimisations  :    36
 total energy-change (2. order) :-0.1732265E-03  (-0.7063739E-06)
 number of electron      11.9999997 magnetization 
 augmentation part        0.2697865 magnetization 

 DIPCOR: dipole corrections for dipol
 direction  1 min pos   158, direction  2 min pos   155, direction  3 min pos   153,
 dipolmoment          -0.001828     -0.001198     -0.001269 electrons x Angstroem
 Tr[quadrupol]         6.707447

 energy correction for charged system         0.000000 eV
 dipol+quadrupol energy correction           -0.000000 eV
 added-field ion interaction          0.000461 eV  (added to PSCEN)


 Broyden mixing:
  rms(total) = 0.14262E-03    rms(broyden)= 0.14261E-03
  rms(prec ) = 0.17442E-03
  weight for this iteration     100.00

 eigenvalues of (default mixing * dielectric matrix)
  average eigenvalue GAMMA=   2.4779
  8.2492  5.5664  3.7019  2.5996  2.3518  1.8979  1.3794  1.3794  1.2151  1.0062
  1.0060  1.0060  0.8538

 Free energy of the ion-electron system (eV)
  ---------------------------------------------------
  alpha Z        PSCENC =         0.07668852
  Ewald energy   TEWEN  =       383.90353186
  -Hartree energ DENC   =      -656.91255351
  -exchange      EXHF   =         0.00000000
  -V(xc)+E(xc)   XCENC  =        37.94155919
  PAW double counting   =       863.68168014     -865.14891335
  entropy T*S    EENTRO =        -0.00000000
  eigenvalues    EBANDS =      -139.67477699
  atomic energy  EATOM  =       344.16897840
  Solvation  Ediel_sol  =         0.00000000
  ---------------------------------------------------
  free energy    TOTEN  =       -31.96380574 eV

  energy without entropy =      -31.96380574  energy(sigma->0) =      -31.96380574


--------------------------------------------------------------------------------------------------------




----------------------------------------- Iteration    1(  19)  ---------------------------------------


    POTLOK:  cpu time    1.0484: real time    1.0486
    SETDIJ:  cpu time    0.0048: real time    0.0048
     EDDAV:  cpu time    0.6197: real time    0.6200
       DOS:  cpu time    0.0005: real time    0.0005
    --------------------------------------------
      LOOP:  cpu time    1.6751: real time    1.6785

 eigenvalue-minimisations  :    36
 total energy-change (2. order) :-0.3663340E-04  (-0.5292269E-07)
 number of electron      11.9999997 magnetization 
 augmentation part        0.2697865 magnetization 

 DIPCOR: dipole corrections for dipol
 direction  1 min pos   158, direction  2 min pos   172, direction  3 min pos   162,
 dipolmoment          -0.001391      0.000282     -0.000424 electrons x Angstroem
 Tr[quadrupol]         6.701528

 energy correction for charged system         0.000000 eV
 dipol+quadrupol energy correction           -0.000000 eV
 added-field ion interaction          0.000203 eV  (added to PSCEN)


 Free energy of the ion-electron system (eV)
  ---------------------------------------------------
  alpha Z        PSCENC =         0.07643020
  Ewald energy   TEWEN  =       383.90353186
  -Hartree energ DENC   =      -656.91011414
  -exchange      EXHF   =         0.00000000
  -V(xc)+E(xc)   XCENC  =        37.94136667
  PAW double counting   =       863.76996675     -865.23710986
  entropy T*S    EENTRO =        -0.00000000
  eigenvalues    EBANDS =      -139.67689226
  atomic energy  EATOM  =       344.16897840
  Solvation  Ediel_sol  =         0.00000000
  ---------------------------------------------------
  free energy    TOTEN  =       -31.96384238 eV

  energy without entropy =      -31.96384238  energy(sigma->0) =      -31.96384238


--------------------------------------------------------------------------------------------------------




 average (electrostatic) potential at core
  the test charge radii are     0.6991  0.5201
  (the norm of the test charge is              1.0000)
       1 -58.6256       2 -58.6265       3 -42.0623       4 -42.0611       5 -42.0562
       6 -42.0572
 
 
 
 E-fermi :  -6.4448     XC(G=0):  -0.1739     alpha+bet : -0.0388


 k-point     1 :       0.0000    0.0000    0.0000
  band No.  band energies     occupation 
      1     -18.7838      2.00000
      2     -14.2019      2.00000
      3     -11.4939      2.00000
      4     -10.0858      2.00000
      5      -8.5356      2.00000
      6      -6.7375      2.00000
      7      -1.0795      0.00000
      8      -0.3267      0.00000
      9       0.0541      0.00000
     10       0.1349      0.00000
     11       0.1629      0.00000
     12       0.2904      0.00000


--------------------------------------------------------------------------------------------------------


 soft charge-density along one line, spin component           1
         0         1         2         3         4         5         6         7         8         9
 total charge-density along one line
 
 pseudopotential strength for first ion, spin component:           1
 10.244  13.624  -0.000   0.000  -0.000  -0.000  -0.000  -0.001
 13.624  18.117  -0.000   0.000  -0.000  -0.000  -0.000  -0.002
 -0.000  -0.000  -4.368  -0.002  -0.000   8.546   0.002   0.000
  0.000   0.000  -0.002  -4.367   0.000   0.002   8.546  -0.000
 -0.000  -0.000  -0.000   0.000  -4.374   0.000  -0.000   8.554
 -0.000  -0.000   8.546   0.002   0.000 -18.860   0.001  -0.000
 -0.000  -0.000   0.002   8.546  -0.000   0.001 -18.861  -0.000
 -0.001  -0.002   0.000  -0.000   8.554  -0.000  -0.000 -18.868
 total augmentation occupancy for first ion, spin component:           1
  7.668  -3.262   0.010   0.000   0.408   0.002   0.000   0.070
 -3.262   1.413  -0.006  -0.000  -0.247  -0.001  -0.000  -0.040
  0.010  -0.006   1.432   0.286   0.012   0.110   0.040   0.002
  0.000  -0.000   0.286   1.396  -0.007   0.040   0.105  -0.001
  0.408  -0.247   0.012  -0.007   1.914   0.002  -0.001   0.178
  0.002  -0.001   0.110   0.040   0.002   0.009   0.004   0.000
  0.000  -0.000   0.040   0.105  -0.001   0.004   0.008  -0.000
  0.070  -0.040   0.002  -0.001   0.178   0.000  -0.000   0.017


------------------------ aborting loop because EDIFF is reached ----------------------------------------


    CHARGE:  cpu time    0.1741: real time    0.1743
    FORLOC:  cpu time    0.0589: real time    0.0589
    FORNL :  cpu time    0.1671: real time    0.1673
    STRESS:  cpu time    0.5433: real time    0.5436
    FORCOR:  cpu time    1.0164: real time    1.0172
    FORHAR:  cpu time    0.3086: real time    0.3087
    MIXING:  cpu time    0.0341: real time    0.0341
    OFIELD:  cpu time    0.0000: real time    0.0000

  DFT-D2 method for vdW energy calculation
  -------------------------------------------------------------------

  Parameters of vdW forcefield:
         C6(Jnm^6/mol)     R0(A)
   -----------------------------
   C        1.750          1.452
   H        0.140          1.001

  IVDW =   1
  VDW_RADIUS =    50.000 A
  VDW_S6 =     0.750
  VDW_SR =     1.000
  VDW_D =    20.000
  LVDW_EWALD = F

  Number of pair interactions contributing to vdW energy:    1604
  Edisp (eV):   -0.03291
    FORVDW:  cpu time    0.0302: real time    0.0331

  FORCE on cell =-STRESS in cart. coord.  units (eV):
  Direction    XX          YY          ZZ          XY          YZ          ZX
  --------------------------------------------------------------------------------------
  Alpha Z     0.07623     0.07623     0.07623
  Ewald     286.23388    54.98074    42.68892     5.84779    97.43572    -2.51377
  Hartree   298.97669   181.08166   176.86006     2.96572    33.06701    -0.84934
  E(xc)     -41.42373   -42.01240   -42.07553     0.01498     0.50570    -0.01306
  Local    -680.42400  -340.79652  -325.72695    -8.57402  -118.91555     3.06221
  n-local   -18.89349   -18.29896   -18.17076    -0.01560    -1.03300     0.02607
  augment    -0.24166    -0.20339    -0.19566    -0.00096    -0.06197     0.00164
  Kinetic   155.58481   164.91162   166.24620    -0.23233   -10.70978     0.28039
  Fock        0.00000     0.00000     0.00000     0.00000     0.00000     0.00000
  vdW         0.01740     0.05654     0.04997    -0.00104     0.05316    -0.00139
  -------------------------------------------------------------------------------------
  Total      -0.09387    -0.20448    -0.24751     0.00455     0.34129    -0.00724
  in kB      -0.01880    -0.04095    -0.04957     0.00091     0.06835    -0.00145
  external pressure =       -0.04 kB  Pullay stress =        0.00 kB


 VOLUME and BASIS-vectors are now :
 -----------------------------------------------------------------------------
  energy-cutoff  :      400.00
  volume of cell :     8000.00
      direct lattice vectors                 reciprocal lattice vectors
    20.000000000  0.000000000  0.000000000     0.050000000  0.000000000  0.000000000
     0.000000000 20.000000000  0.000000000     0.000000000  0.050000000  0.000000000
     0.000000000  0.000000000 20.000000000     0.000000000  0.000000000  0.050000000

  length of vectors
    20.000000000 20.000000000 20.000000000     0.050000000  0.050000000  0.050000000


 FORCES acting on ions
    electron-ion (+dipol)            ewald-force                    non-local-force                 convergence-correction
 -----------------------------------------------------------------------------------------------
   0.101E+03 0.257E+01 0.443E-02   -.102E+03 -.258E+01 -.638E-02   0.763E+00 0.153E-01 -.792E-03   -.114E-02 0.924E-05 0.159E-04
   -.101E+03 -.257E+01 -.214E-02   0.102E+03 0.258E+01 0.373E-02   -.741E+00 -.152E-01 0.466E-03   0.143E-02 0.763E-04 0.168E-04
   0.380E+02 -.336E+02 -.325E+02   -.413E+02 0.373E+02 0.360E+02   0.306E+01 -.356E+01 -.342E+01   -.282E-03 0.239E-03 0.229E-03
   0.362E+02 0.355E+02 0.325E+02   -.393E+02 -.393E+02 -.360E+02   0.287E+01 0.371E+01 0.342E+01   -.274E-03 -.245E-03 -.227E-03
   -.362E+02 -.355E+02 -.325E+02   0.393E+02 0.393E+02 0.360E+02   -.287E+01 -.370E+01 -.341E+01   0.255E-03 0.206E-03 0.184E-03
   -.380E+02 0.336E+02 0.325E+02   0.413E+02 -.372E+02 -.360E+02   -.306E+01 0.355E+01 0.341E+01   0.270E-03 -.183E-03 -.183E-03
 -----------------------------------------------------------------------------------------------
   -.201E-01 -.816E-04 0.624E-03   -.355E-13 0.711E-14 -.711E-14   0.200E-01 -.741E-03 -.853E-03   0.266E-03 0.103E-03 0.353E-04
 
 
 POSITION                                       TOTAL-FORCE (eV/Angst)
 -----------------------------------------------------------------------------------
      1.98660      1.93937      1.89980         0.390153      0.005517     -0.002694
      3.32160      1.97337      1.89980        -0.364165     -0.005434      0.002107
      1.40960      2.60237      2.53680        -0.187814      0.123495      0.119872
      1.44460      1.24737      1.26280        -0.182145     -0.130958     -0.118979
      3.86460      2.66537      2.53680         0.169481      0.122035      0.111217
      3.89960      1.31037      1.26280         0.174491     -0.114656     -0.111522
 -----------------------------------------------------------------------------------
    total drift:                                0.000176     -0.000720     -0.000194


--------------------------------------------------------------------------------------------------------



  FREE ENERGIE OF THE ION-ELECTRON SYSTEM (eV)
  ---------------------------------------------------
  free  energy   TOTEN  =       -31.99675403 eV

  energy  without entropy=      -31.99675403  energy(sigma->0) =      -31.99675403
 


--------------------------------------------------------------------------------------------------------


    POTLOK:  cpu time    1.0709: real time    1.0723


--------------------------------------------------------------------------------------------------------




--------------------------------------------------------------------------------------------------------


    WAVPRE:  cpu time    0.2236: real time    0.2237
 FEWALD executed in parallel
    FEWALD:  cpu time    0.0027: real time    0.0027

 real space projection operators:
  total allocation   :       1123.09 KBytes
  max/ min on nodes  :        561.88        561.22

    ORTHCH:  cpu time    0.0577: real time    0.0577
     LOOP+:  cpu time   33.8229: real time   34.3596


----------------------------------------- Iteration    2(   1)  ---------------------------------------


    POTLOK:  cpu time    1.0638: real time    1.0646
    SETDIJ:  cpu time    0.0038: real time    0.0038
     EDDAV:  cpu time    0.4485: real time    0.4486
       DOS:  cpu time    0.0004: real time    0.0004
    CHARGE:  cpu time    0.1751: real time    0.1751
    MIXING:  cpu time    0.0276: real time    0.0276
    --------------------------------------------
      LOOP:  cpu time    1.7235: real time    1.7253

 eigenvalue-minimisations  :    24
 total energy-change (2. order) : 0.3986639E-01  (-0.2481042E+00)
 number of electron      11.9999996 magnetization 
 augmentation part        0.2693100 magnetization 

 DIPCOR: dipole corrections for dipol
 direction  1 min pos   176, direction  2 min pos   166, direction  3 min pos   160,
 dipolmoment          -0.000115     -0.000112     -0.000351 electrons x Angstroem
 Tr[quadrupol]         6.693229

 energy correction for charged system         0.000000 eV
 dipol+quadrupol energy correction           -0.000000 eV
 added-field ion interaction          0.000021 eV  (added to PSCEN)


 Broyden mixing:
  rms(total) = 0.58354E-01    rms(broyden)= 0.58284E-01
  rms(prec ) = 0.60209E-01
  weight for this iteration     100.00

 Free energy of the ion-electron system (eV)
  ---------------------------------------------------
  alpha Z        PSCENC =         0.07624760
  Ewald energy   TEWEN  =       384.68855525
  -Hartree energ DENC   =      -657.90923721
  -exchange      EXHF   =         0.00000000
  -V(xc)+E(xc)   XCENC  =        37.92400404
  PAW double counting   =       863.82640257     -865.29354793
  entropy T*S    EENTRO =        -0.00000000
  eigenvalues    EBANDS =      -139.40534207
  atomic energy  EATOM  =       344.16897840
  Solvation  Ediel_sol  =         0.00000000
  ---------------------------------------------------
  free energy    TOTEN  =       -31.92393935 eV

  energy without entropy =      -31.92393935  energy(sigma->0) =      -31.92393935


--------------------------------------------------------------------------------------------------------




----------------------------------------- Iteration    2(   2)  ---------------------------------------


    POTLOK:  cpu time    1.0554: real time    1.0554
    SETDIJ:  cpu time    0.0039: real time    0.0038
     EDDAV:  cpu time    0.6125: real time    0.6125
       DOS:  cpu time    0.0005: real time    0.0005
    CHARGE:  cpu time    0.1763: real time    0.1763
    MIXING:  cpu time    0.0286: real time    0.0286
    --------------------------------------------
      LOOP:  cpu time    1.8787: real time    1.8809

 eigenvalue-minimisations  :    36
 total energy-change (2. order) : 0.7980199E-03  (-0.3423970E-02)
 number of electron      11.9999996 magnetization 
 augmentation part        0.2696422 magnetization 

 DIPCOR: dipole corrections for dipol
 direction  1 min pos   163, direction  2 min pos   173, direction  3 min pos   164,
 dipolmoment          -0.000250      0.000207     -0.000149 electrons x Angstroem
 Tr[quadrupol]         6.691071

 energy correction for charged system         0.000000 eV
 dipol+quadrupol energy correction           -0.000000 eV
 added-field ion interaction          0.000034 eV  (added to PSCEN)


 Broyden mixing:
  rms(total) = 0.30630E-01    rms(broyden)= 0.30624E-01
  rms(prec ) = 0.32169E-01
  weight for this iteration     100.00

 eigenvalues of (default mixing * dielectric matrix)
  average eigenvalue GAMMA=   1.2932
  1.2932

 Free energy of the ion-electron system (eV)
  ---------------------------------------------------
  alpha Z        PSCENC =         0.07626116
  Ewald energy   TEWEN  =       384.68855525
  -Hartree energ DENC   =      -657.90583346
  -exchange      EXHF   =         0.00000000
  -V(xc)+E(xc)   XCENC  =        37.91144209
  PAW double counting   =       878.71856888     -880.18598990
  entropy T*S    EENTRO =        -0.00000000
  eigenvalues    EBANDS =      -139.39512374
  atomic energy  EATOM  =       344.16897840
  Solvation  Ediel_sol  =         0.00000000
  ---------------------------------------------------
  free energy    TOTEN  =       -31.92314133 eV

  energy without entropy =      -31.92314133  energy(sigma->0) =      -31.92314133


--------------------------------------------------------------------------------------------------------




----------------------------------------- Iteration    2(   3)  ---------------------------------------


    POTLOK:  cpu time    1.0540: real time    1.0542
    SETDIJ:  cpu time    0.0038: real time    0.0038
     EDDAV:  cpu time    0.4456: real time    0.4457
       DOS:  cpu time    0.0007: real time    0.0007
    CHARGE:  cpu time    0.1769: real time    0.1769
    MIXING:  cpu time    0.0282: real time    0.0282
    --------------------------------------------
      LOOP:  cpu time    1.7107: real time    1.7129

 eigenvalue-minimisations  :    24
 total energy-change (2. order) : 0.1680183E-02  (-0.3394880E-03)
 number of electron      11.9999996 magnetization 
 augmentation part        0.2695260 magnetization 

 DIPCOR: dipole corrections for dipol
 direction  1 min pos   177, direction  2 min pos   180, direction  3 min pos   167,
 dipolmoment           0.000100      0.000408     -0.000022 electrons x Angstroem
 Tr[quadrupol]         6.690168

 energy correction for charged system         0.000000 eV
 dipol+quadrupol energy correction           -0.000000 eV
[...]
 -3.229   1.396  -0.006  -0.000  -0.252  -0.001  -0.000  -0.041
  0.011  -0.006   1.422   0.276   0.012   0.108   0.038   0.002
  0.000  -0.000   0.276   1.387  -0.007   0.038   0.103  -0.001
  0.419  -0.252   0.012  -0.007   1.911   0.002  -0.001   0.178
  0.002  -0.001   0.108   0.038   0.002   0.009   0.004   0.000
  0.000  -0.000   0.038   0.103  -0.001   0.004   0.008  -0.000
  0.072  -0.041   0.002  -0.001   0.178   0.000  -0.000   0.017


------------------------ aborting loop because EDIFF is reached ----------------------------------------


    CHARGE:  cpu time    0.1714: real time    0.1715
    FORLOC:  cpu time    0.0560: real time    0.0560
    FORNL :  cpu time    0.1698: real time    0.1698
    STRESS:  cpu time    0.5403: real time    0.5406
    FORCOR:  cpu time    0.9607: real time    0.9610
    FORHAR:  cpu time    0.2876: real time    0.2876
    MIXING:  cpu time    0.0254: real time    0.0254
    OFIELD:  cpu time    0.0000: real time    0.0000

  Number of pair interactions contributing to vdW energy:    1598
  Edisp (eV):   -0.03295
    FORVDW:  cpu time    0.0002: real time    0.0002

  FORCE on cell =-STRESS in cart. coord.  units (eV):
  Direction    XX          YY          ZZ          XY          YZ          ZX
  --------------------------------------------------------------------------------------
  Alpha Z     0.07623     0.07623     0.07623
  Ewald     287.33527    53.31142    41.20851     5.95023    95.86443    -2.45879
  Hartree   298.67141   180.29707   176.09827     2.99213    32.86589    -0.83896
  E(xc)     -41.32755   -41.93057   -41.99340     0.01548     0.50312    -0.01287
  Local    -680.84561  -338.70596  -323.79147    -8.68230  -117.60636     3.00986
  n-local   -18.69700   -18.13424   -18.01112    -0.01401    -0.99122     0.02587
  augment    -0.24239    -0.19885    -0.19170    -0.00108    -0.05734     0.00152
  Kinetic   154.50819   164.67475   165.99958    -0.26156   -10.62157     0.27139
  Fock        0.00000     0.00000     0.00000     0.00000     0.00000     0.00000
  vdW         0.02477     0.05748     0.05080    -0.00083     0.05405    -0.00138
  -------------------------------------------------------------------------------------
  Total      -0.49669    -0.55267    -0.55432    -0.00195     0.01101    -0.00337
  in kB      -0.09947    -0.11068    -0.11101    -0.00039     0.00220    -0.00068
  external pressure =       -0.11 kB  Pullay stress =        0.00 kB


 VOLUME and BASIS-vectors are now :
 -----------------------------------------------------------------------------
  energy-cutoff  :      400.00
  volume of cell :     8000.00
      direct lattice vectors                 reciprocal lattice vectors
    20.000000000  0.000000000  0.000000000     0.050000000  0.000000000  0.000000000
     0.000000000 20.000000000  0.000000000     0.000000000  0.050000000  0.000000000
     0.000000000  0.000000000 20.000000000     0.000000000  0.000000000  0.050000000

  length of vectors
    20.000000000 20.000000000 20.000000000     0.050000000  0.050000000  0.050000000


 FORCES acting on ions
    electron-ion (+dipol)            ewald-force                    non-local-force                 convergence-correction
 -----------------------------------------------------------------------------------------------
   0.101E+03 0.260E+01 0.380E-02   -.102E+03 -.262E+01 -.562E-02   0.602E+00 0.144E-01 -.206E-02   -.186E-02 0.511E-03 0.547E-03
   -.101E+03 -.260E+01 -.124E-02   0.102E+03 0.262E+01 0.255E-02   -.584E+00 -.142E-01 0.189E-02   -.512E-03 -.236E-03 -.241E-03
   0.381E+02 -.332E+02 -.321E+02   -.411E+02 0.366E+02 0.354E+02   0.305E+01 -.346E+01 -.332E+01   -.356E-04 -.763E-04 -.651E-04
   0.363E+02 0.351E+02 0.321E+02   -.392E+02 -.387E+02 -.354E+02   0.287E+01 0.361E+01 0.332E+01   -.206E-03 -.131E-04 -.350E-05
   -.363E+02 -.350E+02 -.320E+02   0.392E+02 0.386E+02 0.353E+02   -.287E+01 -.360E+01 -.332E+01   0.422E-03 0.513E-03 0.466E-03
   -.381E+02 0.331E+02 0.320E+02   0.411E+02 -.365E+02 -.353E+02   -.305E+01 0.345E+01 0.332E+01   0.356E-03 -.413E-03 -.403E-03
 -----------------------------------------------------------------------------------------------
   -.232E-01 -.398E-03 0.353E-03   0.711E-14 0.000E+00 0.000E+00   0.252E-01 -.333E-03 -.578E-03   -.184E-02 0.285E-03 0.302E-03
 
 
 POSITION                                       TOTAL-FORCE (eV/Angst)
 -----------------------------------------------------------------------------------
      1.98737      1.93926      1.89980         0.023794     -0.002175     -0.003351
      3.32099      1.97348      1.89980         0.006080      0.002499      0.002945
      1.39781      2.60288      2.53747        -0.003820      0.000864      0.000883
      1.43258      1.24621      1.26197        -0.001115      0.001996      0.002059
      3.87651      2.66683      2.53796        -0.013259     -0.017494     -0.016247
      3.91132      1.30957      1.26181        -0.011680      0.014310      0.013711
 -----------------------------------------------------------------------------------
    total drift:                                0.000198     -0.000445      0.000076


--------------------------------------------------------------------------------------------------------



  FREE ENERGIE OF THE ION-ELECTRON SYSTEM (eV)
  ---------------------------------------------------
  free  energy   TOTEN  =       -32.00157522 eV

  energy  without entropy=      -32.00157522  energy(sigma->0) =      -32.00157522
 
 d Force = 0.1552580E-04[ 0.134E-04, 0.177E-04]  d Energy = 0.1801148E-04-0.249E-05
 d Force =-0.2523087E-01[-0.252E-01,-0.252E-01]  d Ewald  =-0.2523087E-01-0.576E-09


--------------------------------------------------------------------------------------------------------


    POTLOK:  cpu time    1.0128: real time    1.0132


--------------------------------------------------------------------------------------------------------


 Conjugate gradient step on ions:
 trial-energy change:   -0.000018  1 .order   -0.000016   -0.000018   -0.000013
  (g-gl).g = 0.121E-03      g.g   = 0.160E-03  gl.gl    = 0.189E-02
 g(Force)  = 0.160E-03   g(Stress)= 0.000E+00 ortho     =-0.104E-04
 gamma     =   0.06379
 trial     =   0.11093
 opt step  =   0.44371  (harmonic =   0.45744) maximal distance =0.00058618
 next E    =   -32.001594   (d E  =  -0.00004)


--------------------------------------------------------------------------------------------------------


    WAVPRE:  cpu time    0.1980: real time    0.1980
 FEWALD executed in parallel
    FEWALD:  cpu time    0.0057: real time    0.0057

 real space projection operators:
  total allocation   :       1122.73 KBytes
  max/ min on nodes  :        561.90        560.84

    ORTHCH:  cpu time    0.0577: real time    0.0577
     LOOP+:  cpu time    6.7793: real time    6.8070


----------------------------------------- Iteration   13(   1)  ---------------------------------------


    POTLOK:  cpu time    1.0358: real time    1.0361
    SETDIJ:  cpu time    0.0099: real time    0.0099
     EDDAV:  cpu time    0.4460: real time    0.4462
       DOS:  cpu time    0.0007: real time    0.0007
    CHARGE:  cpu time    0.1763: real time    0.1763
    MIXING:  cpu time    0.0254: real time    0.0254
    --------------------------------------------
      LOOP:  cpu time    1.6983: real time    1.6992

 eigenvalue-minimisations  :    24
 total energy-change (2. order) :-0.6634618E-04  (-0.9607214E-04)
 number of electron      11.9999997 magnetization 
 augmentation part        0.2679771 magnetization 

 DIPCOR: dipole corrections for dipol
 direction  1 min pos   165, direction  2 min pos   174, direction  3 min pos   164,
 dipolmoment           0.000203      0.000040     -0.000028 electrons x Angstroem
 Tr[quadrupol]         6.693510

 energy correction for charged system         0.000000 eV
 dipol+quadrupol energy correction           -0.000000 eV
 added-field ion interaction         -0.000015 eV  (added to PSCEN)


 Broyden mixing:
  rms(total) = 0.11550E-02    rms(broyden)= 0.11536E-02
  rms(prec ) = 0.12489E-02
  weight for this iteration     100.00

 Free energy of the ion-electron system (eV)
  ---------------------------------------------------
  alpha Z        PSCENC =         0.07621185
  Ewald energy   TEWEN  =       381.93099833
  -Hartree energ DENC   =      -655.10985406
  -exchange      EXHF   =         0.00000000
  -V(xc)+E(xc)   XCENC  =        37.86353881
  PAW double counting   =       854.15275941     -855.61374533
  entropy T*S    EENTRO =        -0.00000000
  eigenvalues    EBANDS =      -139.43757919
  atomic energy  EATOM  =       344.16897840
  Solvation  Ediel_sol  =         0.00000000
  ---------------------------------------------------
  free energy    TOTEN  =       -31.96869178 eV

  energy without entropy =      -31.96869178  energy(sigma->0) =      -31.96869178


--------------------------------------------------------------------------------------------------------




----------------------------------------- Iteration   13(   2)  ---------------------------------------


    POTLOK:  cpu time    1.0320: real time    1.0323
    SETDIJ:  cpu time    0.0099: real time    0.0099
     EDDAV:  cpu time    0.6144: real time    0.6150
       DOS:  cpu time    0.0007: real time    0.0008
    --------------------------------------------
      LOOP:  cpu time    1.6580: real time    1.6605

 eigenvalue-minimisations  :    36
 total energy-change (2. order) : 0.1952538E-05  (-0.2862976E-05)
 number of electron      11.9999997 magnetization 
 augmentation part        0.2679771 magnetization 

 DIPCOR: dipole corrections for dipol
 direction  1 min pos   165, direction  2 min pos   174, direction  3 min pos   164,
 dipolmoment           0.000312      0.000042     -0.000024 electrons x Angstroem
 Tr[quadrupol]         6.693430

 energy correction for charged system         0.000000 eV
 dipol+quadrupol energy correction           -0.000000 eV
 added-field ion interaction         -0.000024 eV  (added to PSCEN)


 Free energy of the ion-electron system (eV)
  ---------------------------------------------------
  alpha Z        PSCENC =         0.07620257
  Ewald energy   TEWEN  =       381.93099833
  -Hartree energ DENC   =      -655.12072696
  -exchange      EXHF   =         0.00000000
  -V(xc)+E(xc)   XCENC  =        37.86412003
  PAW double counting   =       854.40835444     -855.86946877
  entropy T*S    EENTRO =        -0.00000000
  eigenvalues    EBANDS =      -139.42714788
  atomic energy  EATOM  =       344.16897840
  Solvation  Ediel_sol  =         0.00000000
  ---------------------------------------------------
  free energy    TOTEN  =       -31.96868983 eV

  energy without entropy =      -31.96868983  energy(sigma->0) =      -31.96868983


--------------------------------------------------------------------------------------------------------




 average (electrostatic) potential at core
  the test charge radii are     0.6991  0.5201
  (the norm of the test charge is              1.0000)
       1 -58.6538       2 -58.6558       3 -42.0002       4 -42.0037       5 -42.0054
       6 -42.0026
 
 
 
 E-fermi :  -6.4954     XC(G=0):  -0.1416     alpha+bet : -0.0389


 k-point     1 :       0.0000    0.0000    0.0000
  band No.  band energies     occupation 
      1     -18.7655      2.00000
      2     -14.1784      2.00000
      3     -11.4158      2.00000
      4     -10.1351      2.00000
      5      -8.4719      2.00000
      6      -6.7469      2.00000
      7      -1.0781      0.00000
      8      -0.3226      0.00000
      9       0.0934      0.00000
     10       0.1151      0.00000
     11       0.1788      0.00000
     12       0.3103      0.00000


--------------------------------------------------------------------------------------------------------


 soft charge-density along one line, spin component           1
         0         1         2         3         4         5         6         7         8         9
 total charge-density along one line
 
 pseudopotential strength for first ion, spin component:           1
 10.245  13.625  -0.000  -0.000   0.000  -0.000   0.000  -0.002
 13.625  18.120  -0.000  -0.000   0.000  -0.000   0.000  -0.002
 -0.000  -0.000  -4.369  -0.002  -0.000   8.550   0.001   0.000
 -0.000  -0.000  -0.002  -4.369   0.000   0.001   8.550  -0.000
  0.000   0.000  -0.000   0.000  -4.376   0.000  -0.000   8.559
 -0.000  -0.000   8.550   0.001   0.000 -18.869   0.001  -0.000
  0.000   0.000   0.001   8.550  -0.000   0.001 -18.869  -0.000
 -0.002  -0.002   0.000  -0.000   8.559  -0.000  -0.000 -18.878
 total augmentation occupancy for first ion, spin component:           1
  7.608  -3.229   0.011  -0.000   0.421   0.002  -0.000   0.072
 -3.229   1.396  -0.006   0.000  -0.253  -0.001   0.000  -0.041
  0.011  -0.006   1.421   0.276   0.013   0.108   0.038   0.002
 -0.000   0.000   0.276   1.387  -0.007   0.038   0.103  -0.001
  0.421  -0.253   0.013  -0.007   1.911   0.002  -0.001   0.178
  0.002  -0.001   0.108   0.038   0.002   0.009   0.004   0.000
 -0.000   0.000   0.038   0.103  -0.001   0.004   0.008  -0.000
  0.072  -0.041   0.002  -0.001   0.178   0.000  -0.000   0.017


------------------------ aborting loop because EDIFF is reached ----------------------------------------


    CHARGE:  cpu time    0.1748: real time    0.1750
    FORLOC:  cpu time    0.0542: real time    0.0542
    FORNL :  cpu time    0.1682: real time    0.1682
    STRESS:  cpu time    0.5406: real time    0.5407
    FORCOR:  cpu time    0.9880: real time    0.9884
    FORHAR:  cpu time    0.2992: real time    0.2993
    MIXING:  cpu time    0.0255: real time    0.0255
    OFIELD:  cpu time    0.0000: real time    0.0000

  Number of pair interactions contributing to vdW energy:    1598
  Edisp (eV):   -0.03290
    FORVDW:  cpu time    0.0002: real time    0.0002

  FORCE on cell =-STRESS in cart. coord.  units (eV):
  Direction    XX          YY          ZZ          XY          YZ          ZX
  --------------------------------------------------------------------------------------
  Alpha Z     0.07623     0.07623     0.07623
  Ewald     287.45333    53.29020    41.18741     5.99467    95.84350    -2.41769
  Hartree   298.72203   180.30986   176.11173     3.00029    32.85638    -0.83083
  E(xc)     -41.32989   -41.93357   -41.99638     0.01555     0.50286    -0.01281
  Local    -680.99241  -338.70211  -323.78904    -8.72468  -117.57515     2.96965
  n-local   -18.70282   -18.14097   -18.01780    -0.01412    -0.99215     0.02574
  augment    -0.24287    -0.19904    -0.19188    -0.00119    -0.05740     0.00142
  Kinetic   154.51368   164.70748   166.03118    -0.26612   -10.61037     0.26737
  Fock        0.00000     0.00000     0.00000     0.00000     0.00000     0.00000
  vdW         0.02473     0.05739     0.05072    -0.00083     0.05396    -0.00138
  -------------------------------------------------------------------------------------
  Total      -0.47801    -0.53455    -0.53783     0.00355     0.02163     0.00146
  in kB      -0.09573    -0.10705    -0.10771     0.00071     0.00433     0.00029
  external pressure =       -0.10 kB  Pullay stress =        0.00 kB


 VOLUME and BASIS-vectors are now :
 -----------------------------------------------------------------------------
  energy-cutoff  :      400.00
  volume of cell :     8000.00
      direct lattice vectors                 reciprocal lattice vectors
    20.000000000  0.000000000  0.000000000     0.050000000  0.000000000  0.000000000
     0.000000000 20.000000000  0.000000000     0.000000000  0.050000000  0.000000000
     0.000000000  0.000000000 20.000000000     0.000000000  0.000000000  0.050000000

  length of vectors
    20.000000000 20.000000000 20.000000000     0.050000000  0.050000000  0.050000000


 FORCES acting on ions
    electron-ion (+dipol)            ewald-force                    non-local-force                 convergence-correction
 -----------------------------------------------------------------------------------------------
   0.101E+03 0.261E+01 0.922E-02   -.102E+03 -.262E+01 -.828E-02   0.587E+00 0.191E-01 0.301E-02   -.651E-02 0.155E-02 0.170E-02
   -.101E+03 -.261E+01 -.912E-02   0.102E+03 0.262E+01 0.774E-02   -.592E+00 -.189E-01 -.261E-02   -.250E-02 -.876E-03 -.863E-03
   0.381E+02 -.331E+02 -.321E+02   -.411E+02 0.366E+02 0.353E+02   0.305E+01 -.345E+01 -.332E+01   0.517E-04 -.210E-03 -.177E-03
   0.363E+02 0.351E+02 0.321E+02   -.392E+02 -.386E+02 -.354E+02   0.288E+01 0.361E+01 0.332E+01   -.484E-03 -.876E-04 -.562E-04
   -.363E+02 -.351E+02 -.321E+02   0.392E+02 0.386E+02 0.354E+02   -.288E+01 -.361E+01 -.332E+01   0.125E-02 0.189E-02 0.172E-02
   -.381E+02 0.331E+02 0.321E+02   0.411E+02 -.366E+02 -.354E+02   -.305E+01 0.345E+01 0.332E+01   0.102E-02 -.156E-02 -.151E-02
 -----------------------------------------------------------------------------------------------
   0.125E-01 -.908E-03 -.987E-03   0.142E-13 0.000E+00 0.000E+00   -.517E-02 0.714E-04 0.528E-03   -.716E-02 0.698E-03 0.807E-03
 
 
 POSITION                                       TOTAL-FORCE (eV/Angst)
 -----------------------------------------------------------------------------------
      1.98781      1.93917      1.89969        -0.002166      0.006521      0.005579
      3.32120      1.97357      1.89989        -0.001169     -0.005862     -0.004909
      1.39752      2.60283      2.53743         0.006284     -0.005998     -0.005847
      1.43235      1.24633      1.26210         0.003914      0.001521      0.001452
      3.87643      2.66639      2.53755        -0.002603     -0.002147     -0.002034
      3.91128      1.30993      1.26215        -0.004260      0.005964      0.005759
 -----------------------------------------------------------------------------------
    total drift:                                0.000131     -0.000139      0.000348


--------------------------------------------------------------------------------------------------------



  FREE ENERGIE OF THE ION-ELECTRON SYSTEM (eV)
  ---------------------------------------------------
  free  energy   TOTEN  =       -32.00159464 eV

  energy  without entropy=      -32.00159464  energy(sigma->0) =      -32.00159464
 
 d Force = 0.2061040E-04[ 0.107E-05, 0.402E-04]  d Energy = 0.1941470E-04 0.120E-05
 d Force =-0.7573891E-01[-0.758E-01,-0.757E-01]  d Ewald  =-0.7573892E-01 0.403E-08


--------------------------------------------------------------------------------------------------------


    POTLOK:  cpu time    1.0450: real time    1.0452


--------------------------------------------------------------------------------------------------------




--------------------------------------------------------------------------------------------------------


  
 reached required accuracy - stopping structural energy minimisation
     LOOP+:  cpu time    6.6563: real time    6.6755
    4ORBIT:  cpu time    0.0000: real time    0.0000

 total amount of memory used by VASP on root node   199389. kBytes
========================================================================

   base      :      30000. kBytes
   nonlr-proj:        690. kBytes
   fftplans  :      60125. kBytes
   grid      :     107990. kBytes
   one-center:          4. kBytes
   wavefun   :        580. kBytes
 
  
  
 General timing and accounting informations for this job:
 ========================================================
  
                  Total CPU time used (sec):      134.681
                            User time (sec):      123.773
                          System time (sec):       10.908
                         Elapsed time (sec):      139.184
  
                   Maximum memory used (kb):      245676.
                   Average memory used (kb):           0.
  
                          Minor page faults:       474605
                          Major page faults:            0
                 Voluntary context switches:         2337
