 vasp.5.4.1 05Feb16 (build Apr 21 2017 13:36:42) gamma-only                     
  
 executed on           IFC91_ompi date 2020.04.09  13:28:40
 running on    6 total cores
 distrk:  each k-point on    6 cores,    1 groups
 distr:  one band on NCORES_PER_BAND=   2 cores,    3 groups


--------------------------------------------------------------------------------------------------------


 INCAR:
 POTCAR:    PAW_PBE C 08Apr2002                   
 POTCAR:    PAW_PBE H 15Jun2001                   
 POTCAR:    PAW_PBE C 08Apr2002                   
   VRHFIN =C: s2p2                                                              
   LEXCH  = PE                                                                  
   EATOM  =   147.1560 eV,   10.8157 Ry                                         
                                                                                
   TITEL  = PAW_PBE C 08Apr2002                                                 
   LULTRA =        F    use ultrasoft PP ?                                      
   IUNSCR =        1    unscreen: 0-lin 1-nonlin 2-no                           
   RPACOR =    1.200    partial core radius                                     
   POMASS =   12.011; ZVAL   =    4.000    mass and valenz                      
   RCORE  =    1.500    outmost cutoff radius                                   
   RWIGS  =    1.630; RWIGS  =    0.863    wigner-seitz radius (au A)           
   ENMAX  =  400.000; ENMIN  =  300.000 eV                                      
   ICORE  =        2    local potential                                         
   LCOR   =        T    correct aug charges                                     
   LPAW   =        T    paw PP                                                  
   EAUG   =  644.873                                                            
   DEXC   =    0.000                                                            
   RMAX   =    1.529    core radius for proj-oper                               
   RAUG   =    1.300    factor for augmentation sphere                          
   RDEP   =    1.501    radius for radial grids                                 
   RDEPT  =    1.300    core radius for aug-charge                              
                                                                                
   Atomic configuration                                                         
    4 entries                                                                   
     n  l   j            E        occ.                                          
     1  0  0.50      -273.3789   2.0000                                         
     2  0  0.50       -13.7508   2.0000                                         
     2  1  0.50        -5.2854   2.0000                                         
     3  2  1.50        -5.4423   0.0000                                         
   Description                                                                  
     l       E           TYP  RCUT    TYP  RCUT                                 
     0    -13.7508458     23  1.200                                             
     0     -8.2022199     23  1.200                                             
     1     -5.2854383     23  1.500                                             
     1     34.0145650     23  1.500                                             
     2     -5.4423304      7  1.500                                             
  local pseudopotential read in
  partial core-charges read in
  partial kinetic energy density read in
  atomic valenz-charges read in
  non local Contribution for L=           0  read in
    real space projection operators read in
  non local Contribution for L=           0  read in
    real space projection operators read in
  non local Contribution for L=           1  read in
    real space projection operators read in
  non local Contribution for L=           1  read in
    real space projection operators read in
    PAW grid and wavefunctions read in
 
   number of l-projection  operators is LMAX  =           4
   number of lm-projection operators is LMMAX =           8
 
 POTCAR:    PAW_PBE H 15Jun2001                   
   VRHFIN =H: ultrasoft test                                                    
   LEXCH  = PE                                                                  
   EATOM  =    12.4884 eV,    0.9179 Ry                                         
                                                                                
   TITEL  = PAW_PBE H 15Jun2001                                                 
   LULTRA =        F    use ultrasoft PP ?                                      
   IUNSCR =        0    unscreen: 0-lin 1-nonlin 2-no                           
   RPACOR =    0.000    partial core radius                                     
   POMASS =    1.000; ZVAL   =    1.000    mass and valenz                      
   RCORE  =    1.100    outmost cutoff radius                                   
   RWIGS  =    0.700; RWIGS  =    0.370    wigner-seitz radius (au A)           
   ENMAX  =  250.000; ENMIN  =  200.000 eV                                      
   RCLOC  =    0.701    cutoff for local pot                                    
   LCOR   =        T    correct aug charges                                     
   LPAW   =        T    paw PP                                                  
   EAUG   =  400.000                                                            
   RMAX   =    1.123    core radius for proj-oper                               
   RAUG   =    1.200    factor for augmentation sphere                          
   RDEP   =    1.112    radius for radial grids                                 
   RDEPT  =    0.926    core radius for aug-charge                              
                                                                                
   Atomic configuration                                                         
    2 entries                                                                   
     n  l   j            E        occ.                                          
     1  0  0.50        -6.4927   1.0000                                         
     2  1  0.50        -3.4015   0.0000                                         
   Description                                                                  
     l       E           TYP  RCUT    TYP  RCUT                                 
     0     -6.4927494     23  1.100                                             
     0      6.8029130     23  1.100                                             
     1     -4.0817478     23  1.100                                             
  local pseudopotential read in
  atomic valenz-charges read in
  non local Contribution for L=           0  read in
    real space projection operators read in
  non local Contribution for L=           0  read in
    real space projection operators read in
  non local Contribution for L=           1  read in
    real space projection operators read in
    PAW grid and wavefunctions read in
 
   number of l-projection  operators is LMAX  =           3
   number of lm-projection operators is LMMAX =           5
 

 ----------------------------------------------------------------------------- 
|                                                                             |
|  ADVICE TO THIS USER RUNNING 'VASP/VAMP'   (HEAR YOUR MASTER'S VOICE ...):  |
|                                                                             |
|      You have a (more or less) 'small supercell' and for smaller cells      |
|      it is recommended  to use the reciprocal-space projection scheme!      |
|      The real space optimization is not  efficient for small cells and it   |
|      is also less accurate ...                                              |
|      Therefore set LREAL=.FALSE. in the  INCAR file                         |
|                                                                             |
 ----------------------------------------------------------------------------- 

 Optimization of the real space projectors (new method)

 maximal supplied QI-value         = 25.13
 optimisation between [QCUT,QGAM] = [ 10.05, 20.36] = [ 28.30,116.06] Ry 
 Optimized for a Real-space Cutoff    1.51 Angstroem

   l    n(q)    QCUT    max X(q) W(low)/X(q) W(high)/X(q)  e(spline) 
   0      9    10.053   115.676    0.19E-03    0.21E-03    0.38E-06
   0      9    10.053    87.132    0.19E-03    0.21E-03    0.38E-06
   1      9    10.053     4.429    0.87E-04    0.11E-03    0.39E-06
   1      9    10.053     2.733    0.59E-04    0.62E-04    0.43E-06
 Optimization of the real space projectors (new method)

 maximal supplied QI-value         = 34.20
 optimisation between [QCUT,QGAM] = [  9.92, 20.18] = [ 27.55,114.04] Ry 
 Optimized for a Real-space Cutoff    1.34 Angstroem

   l    n(q)    QCUT    max X(q) W(low)/X(q) W(high)/X(q)  e(spline) 
   0      8     9.919    19.460    0.16E-03    0.20E-03    0.36E-06
   0      8     9.919    12.209    0.16E-03    0.20E-03    0.35E-06
   1      8     9.919     4.655    0.19E-03    0.46E-03    0.40E-06
  PAW_PBE C 08Apr2002                   :
 energy of atom  1       EATOM= -147.1560
 kinetic energy error for atom=    0.0288 (will be added to EATOM!!)
  PAW_PBE H 15Jun2001                   :
 energy of atom  2       EATOM=  -12.4884
 kinetic energy error for atom=    0.0098 (will be added to EATOM!!)
 
 
 POSCAR:  C  H                                   
  positions in direct lattice
  velocities in cartesian coordinates
 exchange correlation table for  LEXCH =        8
   RHO(1)=    0.500       N(1)  =     2000
   RHO(2)=  100.500       N(2)  =     4000

 VTST: version 3.1, (03/28/14)

 CHAIN: initializing optimizer
 
 OPT: Using VASP Dynamics algorithm
 CHAIN: Read ICHAIN            0
 
 POSCAR:  C  H                                   
  positions in direct lattice
  velocities in cartesian coordinates
 


--------------------------------------------------------------------------------------------------------


 ion  position               nearest neighbor table
   1  0.099  0.097  0.095-   4 1.09   3 1.09   2 1.33
   2  0.166  0.099  0.095-   5 1.09   6 1.09   1 1.33
   3  0.070  0.130  0.127-   1 1.09
   4  0.072  0.062  0.063-   1 1.09
   5  0.194  0.133  0.127-   2 1.09
   6  0.196  0.065  0.063-   2 1.09
 

IMPORTANT INFORMATION: All symmetrisations will be switched off!
NOSYMM: (Re-)initialisation of all symmetry stuff for point group C_1.

 
 
 KPOINTS: Gamma-point only                        
  k-points in reciprocal lattice
Space group operators:
 irot       det(A)        alpha          n_x          n_y          n_z        tau_x        tau_y        tau_z
    1     1.000000     0.000000     1.000000     0.000000     0.000000     0.000000     0.000000     0.000000

 ----------------------------------------------------------------------------- 
|                                                                             |
|           W    W    AA    RRRRR   N    N  II  N    N   GGGG   !!!           |
|           W    W   A  A   R    R  NN   N  II  NN   N  G    G  !!!           |
|           W    W  A    A  R    R  N N  N  II  N N  N  G       !!!           |
|           W WW W  AAAAAA  RRRRR   N  N N  II  N  N N  G  GGG   !            |
|           WW  WW  A    A  R   R   N   NN  II  N   NN  G    G                |
|           W    W  A    A  R    R  N    N  II  N    N   GGGG   !!!           |
|                                                                             |
|      Your generating k-point grid is not commensurate to the symmetry       |
|      of the lattice.  This can cause   slow convergence with respect        |
|      to k-points for HF type calculations                                   |
|      suggested SOLUTIONS:                                                   |
|       ) if not already the case, use automatic k-point generation           |
|       ) shift your grid to Gamma (G) (e.g. required for hex or fcc lattice) |
|                                                                             |
 ----------------------------------------------------------------------------- 

 
 Subroutine IBZKPT_HF returns following result:
 ==============================================
 
 Found      1 k-points in 1st BZ
 the following      1 k-points will be used (e.g. in the exchange kernel)
 Following reciprocal coordinates:   # in IRBZ
  0.000000  0.000000  0.000000    1.00000000   1 t-inv F


--------------------------------------------------------------------------------------------------------




 Dimension of arrays:
   k-points           NKPTS =      1   k-points in BZ     NKDIM =      1   number of bands    NBANDS=     12
   number of dos      NEDOS =    301   number of ions     NIONS =      6
   non local maximal  LDIM  =      4   non local SUM 2l+1 LMDIM =      8
   total plane-waves  NPLWV = ******
   max r-space proj   IRMAX =   4982   max aug-charges    IRDMAX=   4247
   dimension x,y,z NGX =   140 NGY =  140 NGZ =  140
   dimension x,y,z NGXF=   280 NGYF=  280 NGZF=  280
   support grid    NGXF=   280 NGYF=  280 NGZF=  280
   ions per type =               2   4
 NGX,Y,Z   is equivalent  to a cutoff of  11.64, 11.64, 11.64 a.u.
 NGXF,Y,Z  is equivalent  to a cutoff of  23.27, 23.27, 23.27 a.u.


 I would recommend the setting:
   dimension x,y,z NGX =   130 NGY =  130 NGZ =  130
 SYSTEM =  basalPlane                              
 POSCAR =   C  H                                   

 Startparameter for this run:
   NWRITE =      3    write-flag & timer
   PREC   = accura    normal or accurate (medium, high low for compatibility)
   ISTART =      0    job   : 0-new  1-cont  2-samecut
   ICHARG =      2    charge: 1-file 2-atom 10-const
   ISPIN  =      1    spin polarized calculation?
   LNONCOLLINEAR =      F non collinear calculations
   LSORBIT =      F    spin-orbit coupling
   INIWAV =      1    electr: 0-lowe 1-rand  2-diag
   LASPH  =      F    aspherical Exc in radial PAW
   METAGGA=      F    non-selfconsistent MetaGGA calc.

 Electronic Relaxation 1
   ENCUT  =  400.0 eV  29.40 Ry    5.42 a.u.  32.61 32.61 32.61*2*pi/ulx,y,z
   ENINI  =  400.0     initial cutoff
   ENAUG  =  645.0 eV  augmentation charge cutoff
   NELM   =    200;   NELMIN=  2; NELMDL= -5     # of ELM steps 
   EDIFF  = 0.1E-05   stopping-criterion for ELM
   LREAL  =      T    real-space projection
   NLSPLINE    = F    spline interpolate recip. space projectors
   LCOMPAT=      F    compatible to vasp.4.4
   GGA_COMPAT  = T    GGA compatible to vasp.4.4-vasp.4.6
   LMAXPAW     = -100 max onsite density
   LMAXMIX     =    2 max onsite mixed and CHGCAR
   VOSKOWN=      0    Vosko Wilk Nusair interpolation
   ROPT   =   -0.00025  -0.00025
 Ionic relaxation
   EDIFFG = -.2E-01   stopping-criterion for IOM
   NSW    =    109    number of steps for IOM
   NBLOCK =      1;   KBLOCK =      1    inner block; outer block 
   IBRION =      5    ionic relax: 0-MD 1-quasi-New 2-CG
   NFREE  =      2    steps in history (QN), initial steepest desc. (CG)
   ISIF   =      2    stress and relaxation
   IWAVPR =     11    prediction:  0-non 1-charg 2-wave 3-comb
   ISYM   =      0    0-nonsym 1-usesym 2-fastsym
   LCORR  =      T    Harris-Foulkes like correction to forces

   POTIM  = 0.0150    time-step for ionic-motion
   TEIN   =    0.0    initial temperature
   TEBEG  =    0.0;   TEEND  =   0.0 temperature during run
   SMASS  =  -3.00    Nose mass-parameter (am)
   estimated Nose-frequenzy (Omega)   =  0.10E-29 period in steps =****** mass=  -0.914E-26a.u.
   SCALEE = 1.0000    scale energy and forces
   NPACO  =    256;   APACO  = 16.0  distance and # of slots for P.C.
   PSTRESS=    0.0 pullay stress

  Mass of Ions in am
   POMASS =  12.01  1.00
  Ionic Valenz
   ZVAL   =   4.00  1.00
  Atomic Wigner-Seitz radii
   RWIGS  =  -1.00 -1.00
  virtual crystal weights 
   VCA    =   1.00  1.00
   NELECT =      12.0000    total number of electrons
   NUPDOWN=      -1.0000    fix difference up-down

 DOS related values:
   EMIN   =  10.00;   EMAX   =-10.00  energy-range for DOS
   EFERMI =   0.00
   ISMEAR =     0;   SIGMA  =   0.10  broadening in eV -4-tet -1-fermi 0-gaus

 Electronic relaxation 2 (details)
   IALGO  =     38    algorithm
   LDIAG  =      T    sub-space diagonalisation (order eigenvalues)
   LSUBROT=      F    optimize rotation matrix (better conditioning)
   TURBO    =      0    0=normal 1=particle mesh
   IRESTART =      0    0=no restart 2=restart with 2 vectors
   NREBOOT  =      0    no. of reboots
   NMIN     =      0    reboot dimension
   EREF     =   0.00    reference energy to select bands
   IMIX   =      4    mixing-type and parameters
     AMIX     =   0.40;   BMIX     =  1.00
     AMIX_MAG =   1.60;   BMIX_MAG =  1.00
     AMIN     =   0.10
     WC   =   100.;   INIMIX=   1;  MIXPRE=   1;  MAXMIX= -45

 Intra band minimization:
   WEIMIN = 0.0010     energy-eigenvalue tresh-hold
   EBREAK =  0.21E-07  absolut break condition
   DEPER  =   0.30     relativ break condition  

   TIME   =   0.40     timestep for ELM

  volume/ion in A,a.u.               =    1333.33      8997.78
  Fermi-wavevector in a.u.,A,eV,Ry     =   0.187401  0.354137  0.477825  0.035119
  Thomas-Fermi vector in A             =   0.923081
 
 Write flags
   LWAVE  =      F    write WAVECAR
   LCHARG =      F    write CHGCAR
   LVTOT  =      F    write LOCPOT, total local potential
   LVHAR  =      F    write LOCPOT, Hartree potential only
   LELF   =      F    write electronic localiz. function (ELF)
   LORBIT =      0    0 simple, 1 ext, 2 COOP (PROOUT)


 Dipole corrections
   LMONO  =      F    monopole corrections only (constant potential shift)
   LDIPOL =      F    correct potential (dipole corrections)
   IDIPOL =      0    1-x, 2-y, 3-z, 4-all directions 
   EPSILON=  1.0000000 bulk dielectric constant

 Exchange correlation treatment:
   GGA     =    --    GGA type
   LEXCH   =     8    internal setting for exchange type
   VOSKOWN=      0    Vosko Wilk Nusair interpolation
   LHFCALC =     F    Hartree Fock is set to
   LHFONE  =     F    Hartree Fock one center treatment
   AEXX    =    0.0000 exact exchange contribution

 Linear response parameters
   LEPSILON=     F    determine dielectric tensor
   LRPA    =     F    only Hartree local field effects (RPA)
   LNABLA  =     F    use nabla operator in PAW spheres
   LVEL    =     F    velocity operator in full k-point grid
   LINTERFAST=   F  fast interpolation
   KINTER  =     0    interpolate to denser k-point grid
   CSHIFT  =0.1000    complex shift for real part using Kramers Kronig
   OMEGAMAX=  -1.0    maximum frequency
   DEG_THRESHOLD= 0.2000000E-02 threshold for treating states as degnerate
   RTIME   =    0.100 relaxation time in fs

 Orbital magnetization related:
   ORBITALMAG=     F  switch on orbital magnetization
   LCHIMAG   =     F  perturbation theory with respect to B field
   DQ        =  0.001000  dq finite difference perturbation B field



--------------------------------------------------------------------------------------------------------


 finite differences
 charge density and potential will be updated during run
 non-spin polarized calculation
 Variant of blocked Davidson
 Davidson routine will perform the subspace rotation
 perform sub-space diagonalisation
    after iterative eigenvector-optimisation
 modified Broyden-mixing scheme, WC =      100.0
 initial mixing is a Kerker type mixing with AMIX =  0.4000 and BMIX =      1.0000
 Hartree-type preconditioning will be used
 using additional bands            6
 real space projection scheme for non local part
 use partial core corrections
 calculate Harris-corrections to forces 
   (improved forces if not selfconsistent)
 use gradient corrections 
 use of overlap-Matrix (Vanderbilt PP)
 Gauss-broadening in eV      SIGMA  =   0.10


--------------------------------------------------------------------------------------------------------


  energy-cutoff  :      400.00
  volume of cell :     8000.00
      direct lattice vectors                 reciprocal lattice vectors
    20.000000000  0.000000000  0.000000000     0.050000000  0.000000000  0.000000000
     0.000000000 20.000000000  0.000000000     0.000000000  0.050000000  0.000000000
     0.000000000  0.000000000 20.000000000     0.000000000  0.000000000  0.050000000

  length of vectors
    20.000000000 20.000000000 20.000000000     0.050000000  0.050000000  0.050000000


 
 k-points in units of 2pi/SCALE and weight: Gamma-point only                        
   0.00000000  0.00000000  0.00000000       1.000
 
 k-points in reciprocal lattice and weights: Gamma-point only                        
   0.00000000  0.00000000  0.00000000       1.000
 
 position of ions in fractional coordinates (direct lattice) 
   0.09939026  0.09695839  0.09498473
   0.16606002  0.09867864  0.09499443
   0.06987598  0.13014134  0.12687127
   0.07161754  0.06231667  0.06310482
   0.19382161  0.13331955  0.12687754
   0.19556406  0.06549645  0.06310747
 
 position of ions in cartesian coordinates  (Angst):
   1.98780511  1.93916775  1.89969455
   3.32120033  1.97357288  1.89988869
   1.39751951  2.60282674  2.53742534
   1.43235089  1.24633348  1.26209633
   3.87643212  2.66639102  2.53755083
   3.91128114  1.30992892  1.26214940
 


--------------------------------------------------------------------------------------------------------


 use parallel FFT for wavefunctions z direction half grid
 k-point  1 :   0.0000 0.0000 0.0000  plane waves:   72583

 maximum and minimum number of plane-waves per node :     36292    36291

 maximum number of plane-waves:     72583
 maximum index in each direction: 
   IXMAX=   32   IYMAX=   32   IZMAX=   32
   IXMIN=  -32   IYMIN=  -32   IZMIN=    0

 NGX is ok and might be reduce to 130
 NGY is ok and might be reduce to 130
 NGZ is ok and might be reduce to 130

 real space projection operators:
  total allocation   :       1122.73 KBytes
  max/ min on nodes  :        561.90        560.84


 parallel 3D FFT for wavefunctions:
    minimum data exchange during FFTs selected (reduces bandwidth)
 parallel 3D FFT for charge:
    minimum data exchange during FFTs selected (reduces bandwidth)


 total amount of memory used by VASP on root node   448278. kBytes
========================================================================

   base      :      30000. kBytes
   nonlr-proj:        690. kBytes
   fftplans  :     152823. kBytes
   grid      :     262438. kBytes
   one-center:          4. kBytes
   wavefun   :       2323. kBytes
 
     INWAV:  cpu time    0.0000: real time    0.0000
 Broyden mixing: mesh for mixing (old mesh)
   NGX = 65   NGY = 65   NGZ = 65
  (NGX  =280   NGY  =280   NGZ  =280)
  gives a total of 274625 points

 initial charge density was supplied:
 charge density of overlapping atoms calculated
 number of electron      12.0000000 magnetization 
 keeping initial charge density in first step


--------------------------------------------------------------------------------------------------------


 Maximum index for non-local projection operator         2401
 Maximum index for augmentation-charges          653 (set IRDMAX)


--------------------------------------------------------------------------------------------------------


 First call to EWALD:  gamma=   0.089
 Maximum number of real-space cells 3x 3x 3
 Maximum number of reciprocal cells 3x 3x 3

 FEWALD executed in parallel
    FEWALD:  cpu time    0.0016: real time    0.0016


----------------------------------------- Iteration    1(   1)  ---------------------------------------


    POTLOK:  cpu time    2.6052: real time    2.6053
    SETDIJ:  cpu time    0.0177: real time    0.0178
     EDDAV:  cpu time    1.2017: real time    1.2020
       DOS:  cpu time    0.0003: real time    0.0003
    --------------------------------------------
      LOOP:  cpu time    3.8341: real time    3.8379

 eigenvalue-minimisations  :    42
 total energy-change (2. order) : 0.4093213E+02  (-0.2232664E+03)
 number of electron      12.0000000 magnetization 
 augmentation part       12.0000000 magnetization 

 Free energy of the ion-electron system (eV)
  ---------------------------------------------------
  alpha Z        PSCENC =         0.07622704
  Ewald energy   TEWEN  =       381.93099833
  -Hartree energ DENC   =      -596.55837881
  -exchange      EXHF   =         0.00000000
  -V(xc)+E(xc)   XCENC  =        34.47155029
  PAW double counting   =       225.58020250     -226.75452526
  entropy T*S    EENTRO =        -0.00000000
  eigenvalues    EBANDS =      -121.98292455
  atomic energy  EATOM  =       344.16897840
  Solvation  Ediel_sol  =         0.00000000
  ---------------------------------------------------
  free energy    TOTEN  =        40.93212795 eV

  energy without entropy =       40.93212795  energy(sigma->0) =       40.93212795


--------------------------------------------------------------------------------------------------------




 average (electrostatic) potential at core
  the test charge radii are     0.6991  0.5201
  (the norm of the test charge is              1.0000)
       1 -66.2260       2 -66.2269       3 -46.6405       4 -46.6443       5 -46.6457
       6 -46.6425
 
 
 
 E-fermi :  -1.0418     XC(G=0):  -0.1842     alpha+bet : -0.0389


 k-point     1 :       0.0000    0.0000    0.0000
  band No.  band energies     occupation 
      1     -22.9138      2.00000
      2     -16.4763      2.00000
      3     -10.6852      2.00000
      4      -7.5350      2.00000
      5      -1.8328      2.00000
      6      -1.5483      2.00000
      7      -0.0562      0.00000
      8       0.3340      0.00000
      9       0.4277      0.00000
     10       1.0381      0.00000
     11       1.5803      0.00000
     12       2.0035      0.00000


--------------------------------------------------------------------------------------------------------


 soft charge-density along one line, spin component           1
         0         1         2         3         4         5         6         7         8         9
 total charge-density along one line
 
 pseudopotential strength for first ion, spin component:           1
 10.682  14.216   0.000  -0.000   0.007  -0.001   0.000  -0.023
 14.216  18.919   0.000  -0.000   0.009  -0.001   0.000  -0.031
  0.000   0.000  -4.789  -0.015  -0.001   9.394   0.025   0.001
 -0.000  -0.000  -0.015  -4.788   0.000   0.025   9.391  -0.001
  0.007   0.009  -0.001   0.000  -4.817   0.001  -0.001   9.443
 -0.001  -0.001   9.394   0.025   0.001 -20.585  -0.045  -0.002
  0.000   0.000   0.025   9.391  -0.001  -0.045 -20.580   0.001
 -0.023  -0.031   0.001  -0.001   9.443  -0.002   0.001 -20.672
 total augmentation occupancy for first ion, spin component:           1
  2.000   0.000   0.000   0.000   0.000   0.000   0.000   0.000
  0.000   0.000   0.000   0.000   0.000   0.000   0.000   0.000
  0.000   0.000   0.667   0.000   0.000   0.000   0.000   0.000
  0.000   0.000   0.000   0.667   0.000   0.000   0.000   0.000
  0.000   0.000   0.000   0.000   0.667   0.000   0.000   0.000
  0.000   0.000   0.000   0.000   0.000   0.000   0.000   0.000
  0.000   0.000   0.000   0.000   0.000   0.000   0.000   0.000
  0.000   0.000   0.000   0.000   0.000   0.000   0.000   0.000


----------------------------------------- Iteration    1(   2)  ---------------------------------------


     EDDAV:  cpu time    1.1157: real time    1.1157
       DOS:  cpu time    0.0001: real time    0.0001
    --------------------------------------------
      LOOP:  cpu time    1.1171: real time    1.1196

 eigenvalue-minimisations  :    39
 total energy-change (2. order) :-0.6515019E+02  (-0.6497869E+02)
 number of electron      12.0000000 magnetization 
 augmentation part       12.0000000 magnetization 

 Free energy of the ion-electron system (eV)
  ---------------------------------------------------
  alpha Z        PSCENC =         0.07622704
  Ewald energy   TEWEN  =       381.93099833
  -Hartree energ DENC   =      -596.55837881
  -exchange      EXHF   =         0.00000000
  -V(xc)+E(xc)   XCENC  =        34.47155029
  PAW double counting   =       225.58020250     -226.75452526
  entropy T*S    EENTRO =        -0.00000000
  eigenvalues    EBANDS =      -187.13310998
  atomic energy  EATOM  =       344.16897840
  Solvation  Ediel_sol  =         0.00000000
  ---------------------------------------------------
  free energy    TOTEN  =       -24.21805747 eV

  energy without entropy =      -24.21805747  energy(sigma->0) =      -24.21805747


--------------------------------------------------------------------------------------------------------




 average (electrostatic) potential at core
  the test charge radii are     0.6991  0.5201
  (the norm of the test charge is              1.0000)
       1 -66.2260       2 -66.2269       3 -46.6405       4 -46.6443       5 -46.6457
       6 -46.6425
 
 
 
 E-fermi :  -8.1937     XC(G=0):  -0.1842     alpha+bet : -0.0389


 k-point     1 :       0.0000    0.0000    0.0000
  band No.  band energies     occupation 
      1     -24.4534      2.00000
      2     -18.8457      2.00000
      3     -16.0681      2.00000
      4     -14.7583      2.00000
      5     -10.7658      2.00000
      6      -8.6752      2.00000
      7      -0.9392      0.00000
      8      -0.3623      0.00000
      9      -0.1990      0.00000
     10       0.0745      0.00000
     11       0.3909      0.00000
     12       0.5444      0.00000


--------------------------------------------------------------------------------------------------------


 soft charge-density along one line, spin component           1
         0         1         2         3         4         5         6         7         8         9
 total charge-density along one line
 
 pseudopotential strength for first ion, spin component:           1
 10.682  14.216   0.000  -0.000   0.007  -0.001   0.000  -0.023
 14.216  18.919   0.000  -0.000   0.009  -0.001   0.000  -0.031
  0.000   0.000  -4.789  -0.015  -0.001   9.394   0.025   0.001
 -0.000  -0.000  -0.015  -4.788   0.000   0.025   9.391  -0.001
  0.007   0.009  -0.001   0.000  -4.817   0.001  -0.001   9.443
 -0.001  -0.001   9.394   0.025   0.001 -20.585  -0.045  -0.002
  0.000   0.000   0.025   9.391  -0.001  -0.045 -20.580   0.001
 -0.023  -0.031   0.001  -0.001   9.443  -0.002   0.001 -20.672
 total augmentation occupancy for first ion, spin component:           1
  2.000   0.000   0.000   0.000   0.000   0.000   0.000   0.000
  0.000   0.000   0.000   0.000   0.000   0.000   0.000   0.000
  0.000   0.000   0.667   0.000   0.000   0.000   0.000   0.000
  0.000   0.000   0.000   0.667   0.000   0.000   0.000   0.000
  0.000   0.000   0.000   0.000   0.667   0.000   0.000   0.000
  0.000   0.000   0.000   0.000   0.000   0.000   0.000   0.000
  0.000   0.000   0.000   0.000   0.000   0.000   0.000   0.000
  0.000   0.000   0.000   0.000   0.000   0.000   0.000   0.000


----------------------------------------- Iteration    1(   3)  ---------------------------------------


     EDDAV:  cpu time    0.9069: real time    0.9070
       DOS:  cpu time    0.0001: real time    0.0001
    --------------------------------------------
      LOOP:  cpu time    0.9081: real time    0.9098

 eigenvalue-minimisations  :    30
 total energy-change (2. order) :-0.1136347E+02  (-0.1135663E+02)
 number of electron      12.0000000 magnetization 
 augmentation part       12.0000000 magnetization 

 Free energy of the ion-electron system (eV)
  ---------------------------------------------------
  alpha Z        PSCENC =         0.07622704
  Ewald energy   TEWEN  =       381.93099833
  -Hartree energ DENC   =      -596.55837881
  -exchange      EXHF   =         0.00000000
  -V(xc)+E(xc)   XCENC  =        34.47155029
  PAW double counting   =       225.58020250     -226.75452526
  entropy T*S    EENTRO =        -0.00000000
  eigenvalues    EBANDS =      -198.49658086
  atomic energy  EATOM  =       344.16897840
  Solvation  Ediel_sol  =         0.00000000
  ---------------------------------------------------
  free energy    TOTEN  =       -35.58152836 eV

  energy without entropy =      -35.58152836  energy(sigma->0) =      -35.58152836


--------------------------------------------------------------------------------------------------------




 average (electrostatic) potential at core
  the test charge radii are     0.6991  0.5201
  (the norm of the test charge is              1.0000)
       1 -66.2260       2 -66.2269       3 -46.6405       4 -46.6443       5 -46.6457
       6 -46.6425
 
 
 
 E-fermi : -10.7467     XC(G=0):  -0.1842     alpha+bet : -0.0389


 k-point     1 :       0.0000    0.0000    0.0000
  band No.  band energies     occupation 
      1     -24.4999      2.00000
      2     -18.8789      2.00000
      3     -16.2431      2.00000
      4     -15.5350      2.00000
      5     -12.8869      2.00000
      6     -11.2045      2.00000
      7      -2.4019      0.00000
      8      -1.2416      0.00000
      9      -0.6433      0.00000
     10      -0.5849      0.00000
     11       0.0385      0.00000
     12       0.1129      0.00000


--------------------------------------------------------------------------------------------------------


 soft charge-density along one line, spin component           1
         0         1         2         3         4         5         6         7         8         9
 total charge-density along one line
 
 pseudopotential strength for first ion, spin component:           1
 10.682  14.216   0.000  -0.000   0.007  -0.001   0.000  -0.023
 14.216  18.919   0.000  -0.000   0.009  -0.001   0.000  -0.031
  0.000   0.000  -4.789  -0.015  -0.001   9.394   0.025   0.001
 -0.000  -0.000  -0.015  -4.788   0.000   0.025   9.391  -0.001
  0.007   0.009  -0.001   0.000  -4.817   0.001  -0.001   9.443
 -0.001  -0.001   9.394   0.025   0.001 -20.585  -0.045  -0.002
  0.000   0.000   0.025   9.391  -0.001  -0.045 -20.580   0.001
 -0.023  -0.031   0.001  -0.001   9.443  -0.002   0.001 -20.672
 total augmentation occupancy for first ion, spin component:           1
  2.000   0.000   0.000   0.000   0.000   0.000   0.000   0.000
  0.000   0.000   0.000   0.000   0.000   0.000   0.000   0.000
  0.000   0.000   0.667   0.000   0.000   0.000   0.000   0.000
  0.000   0.000   0.000   0.667   0.000   0.000   0.000   0.000
  0.000   0.000   0.000   0.000   0.667   0.000   0.000   0.000
  0.000   0.000   0.000   0.000   0.000   0.000   0.000   0.000
  0.000   0.000   0.000   0.000   0.000   0.000   0.000   0.000
  0.000   0.000   0.000   0.000   0.000   0.000   0.000   0.000


----------------------------------------- Iteration    1(   4)  ---------------------------------------


     EDDAV:  cpu time    0.9058: real time    0.9058
       DOS:  cpu time    0.0001: real time    0.0001
    --------------------------------------------
      LOOP:  cpu time    0.9078: real time    0.9095

 eigenvalue-minimisations  :    30
 total energy-change (2. order) :-0.4762634E+00  (-0.4761767E+00)
 number of electron      12.0000000 magnetization 
 augmentation part       12.0000000 magnetization 

 Free energy of the ion-electron system (eV)
  ---------------------------------------------------
  alpha Z        PSCENC =         0.07622704
  Ewald energy   TEWEN  =       381.93099833
  -Hartree energ DENC   =      -596.55837881
  -exchange      EXHF   =         0.00000000
  -V(xc)+E(xc)   XCENC  =        34.47155029
  PAW double counting   =       225.58020250     -226.75452526
  entropy T*S    EENTRO =        -0.00000000
  eigenvalues    EBANDS =      -198.97284428
  atomic energy  EATOM  =       344.16897840
  Solvation  Ediel_sol  =         0.00000000
  ---------------------------------------------------
  free energy    TOTEN  =       -36.05779178 eV

  energy without entropy =      -36.05779178  energy(sigma->0) =      -36.05779178


--------------------------------------------------------------------------------------------------------




 average (electrostatic) potential at core
  the test charge radii are     0.6991  0.5201
  (the norm of the test charge is              1.0000)
       1 -66.2260       2 -66.2269       3 -46.6405       4 -46.6443       5 -46.6457
       6 -46.6425
 
 
 
 E-fermi : -10.7788     XC(G=0):  -0.1842     alpha+bet : -0.0389


 k-point     1 :       0.0000    0.0000    0.0000
  band No.  band energies     occupation 
      1     -24.5020      2.00000
      2     -18.8808      2.00000
      3     -16.2492      2.00000
      4     -15.5576      2.00000
      5     -12.9811      2.00000
      6     -11.3157      2.00000
      7      -4.9871      0.00000
      8      -1.3565      0.00000
      9      -0.9199      0.00000
     10      -0.6848      0.00000
     11       0.0164      0.00000
     12       0.0572      0.00000


--------------------------------------------------------------------------------------------------------


 soft charge-density along one line, spin component           1
         0         1         2         3         4         5         6         7         8         9
 total charge-density along one line
 
 pseudopotential strength for first ion, spin component:           1
 10.682  14.216   0.000  -0.000   0.007  -0.001   0.000  -0.023
 14.216  18.919   0.000  -0.000   0.009  -0.001   0.000  -0.031
  0.000   0.000  -4.789  -0.015  -0.001   9.394   0.025   0.001
 -0.000  -0.000  -0.015  -4.788   0.000   0.025   9.391  -0.001
  0.007   0.009  -0.001   0.000  -4.817   0.001  -0.001   9.443
 -0.001  -0.001   9.394   0.025   0.001 -20.585  -0.045  -0.002
  0.000   0.000   0.025   9.391  -0.001  -0.045 -20.580   0.001
 -0.023  -0.031   0.001  -0.001   9.443  -0.002   0.001 -20.672
 total augmentation occupancy for first ion, spin component:           1
  2.000   0.000   0.000   0.000   0.000   0.000   0.000   0.000
  0.000   0.000   0.000   0.000   0.000   0.000   0.000   0.000
  0.000   0.000   0.667   0.000   0.000   0.000   0.000   0.000
  0.000   0.000   0.000   0.667   0.000   0.000   0.000   0.000
  0.000   0.000   0.000   0.000   0.667   0.000   0.000   0.000
  0.000   0.000   0.000   0.000   0.000   0.000   0.000   0.000
  0.000   0.000   0.000   0.000   0.000   0.000   0.000   0.000
  0.000   0.000   0.000   0.000   0.000   0.000   0.000   0.000


----------------------------------------- Iteration    1(   5)  ---------------------------------------


     EDDAV:  cpu time    0.7853: real time    0.7853
       DOS:  cpu time    0.0001: real time    0.0001
    CHARGE:  cpu time    0.2655: real time    0.2655
    MIXING:  cpu time    0.0618: real time    0.0618
    --------------------------------------------
      LOOP:  cpu time    1.1152: real time    1.9226

 eigenvalue-minimisations  :    24
 total energy-change (2. order) :-0.1040648E-01  (-0.1040645E-01)
 number of electron      11.9999998 magnetization 
 augmentation part        0.3175428 magnetization 

 Broyden mixing:
  rms(total) = 0.97437E+00    rms(broyden)= 0.97415E+00
  rms(prec ) = 0.10797E+01
  weight for this iteration     100.00

 Free energy of the ion-electron system (eV)
  ---------------------------------------------------
  alpha Z        PSCENC =         0.07622704
  Ewald energy   TEWEN  =       381.93099833
  -Hartree energ DENC   =      -596.55837881
  -exchange      EXHF   =         0.00000000
  -V(xc)+E(xc)   XCENC  =        34.47155029
  PAW double counting   =       225.58020250     -226.75452526
  entropy T*S    EENTRO =        -0.00000000
  eigenvalues    EBANDS =      -198.98325076
  atomic energy  EATOM  =       344.16897840
  Solvation  Ediel_sol  =         0.00000000
  ---------------------------------------------------
  free energy    TOTEN  =       -36.06819826 eV

  energy without entropy =      -36.06819826  energy(sigma->0) =      -36.06819826


--------------------------------------------------------------------------------------------------------




 average (electrostatic) potential at core
  the test charge radii are     0.6991  0.5201
  (the norm of the test charge is              1.0000)
       1 -66.2260       2 -66.2269       3 -46.6405       4 -46.6443       5 -46.6457
       6 -46.6425
 
 
 
 E-fermi : -10.7798     XC(G=0):  -0.1842     alpha+bet : -0.0389


 k-point     1 :       0.0000    0.0000    0.0000
  band No.  band energies     occupation 
      1     -24.5021      2.00000
      2     -18.8809      2.00000
      3     -16.2493      2.00000
      4     -15.5581      2.00000
      5     -12.9839      2.00000
      6     -11.3173      2.00000
      7      -5.2009      0.00000
      8      -1.3756      0.00000
      9      -0.9630      0.00000
     10      -0.6959      0.00000
     11       0.0135      0.00000
     12       0.0555      0.00000


--------------------------------------------------------------------------------------------------------


 soft charge-density along one line, spin component           1
         0         1         2         3         4         5         6         7         8         9
 total charge-density along one line
 
 pseudopotential strength for first ion, spin component:           1
 10.682  14.216   0.000  -0.000   0.007  -0.001   0.000  -0.023
 14.216  18.919   0.000  -0.000   0.009  -0.001   0.000  -0.031
  0.000   0.000  -4.789  -0.015  -0.001   9.394   0.025   0.001
 -0.000  -0.000  -0.015  -4.788   0.000   0.025   9.391  -0.001
  0.007   0.009  -0.001   0.000  -4.817   0.001  -0.001   9.443
 -0.001  -0.001   9.394   0.025   0.001 -20.585  -0.045  -0.002
  0.000   0.000   0.025   9.391  -0.001  -0.045 -20.580   0.001
 -0.023  -0.031   0.001  -0.001   9.443  -0.002   0.001 -20.672
 total augmentation occupancy for first ion, spin component:           1
  5.823  -2.118   0.014   0.004   0.495   0.002   0.000   0.084
 -2.118   0.824  -0.010  -0.003  -0.358  -0.001  -0.000  -0.050
  0.014  -0.010   1.600   0.338   0.011   0.083   0.037   0.002
  0.004  -0.003   0.338   1.557  -0.008   0.037   0.079  -0.001
  0.495  -0.358   0.011  -0.008   2.031   0.002  -0.001   0.158
  0.002  -0.001   0.083   0.037   0.002   0.005   0.003   0.000
  0.000  -0.000   0.037   0.079  -0.001   0.003   0.004  -0.000
  0.084  -0.050   0.002  -0.001   0.158   0.000  -0.000   0.013


----------------------------------------- Iteration    1(   6)  ---------------------------------------


    POTLOK:  cpu time    2.1747: real time    2.1748
    SETDIJ:  cpu time    0.0019: real time    0.0021
     EDDAV:  cpu time    0.9814: real time    0.9815
       DOS:  cpu time    0.0001: real time    0.0001
    CHARGE:  cpu time    0.2439: real time    0.2439
    MIXING:  cpu time    0.0649: real time    0.0649
    --------------------------------------------
      LOOP:  cpu time    3.4683: real time    3.4707

 eigenvalue-minimisations  :    33
 total energy-change (2. order) : 0.3253906E+01  (-0.6685885E+00)
 number of electron      11.9999997 magnetization 
 augmentation part        0.2867040 magnetization 

 Broyden mixing:
  rms(total) = 0.51161E+00    rms(broyden)= 0.51153E+00
  rms(prec ) = 0.55107E+00
  weight for this iteration     100.00

 eigenvalues of (default mixing * dielectric matrix)
  average eigenvalue GAMMA=   1.5419
  1.5419

 Free energy of the ion-electron system (eV)
  ---------------------------------------------------
  alpha Z        PSCENC =         0.07622704
  Ewald energy   TEWEN  =       381.93099833
  -Hartree energ DENC   =      -623.54014655
  -exchange      EXHF   =         0.00000000
  -V(xc)+E(xc)   XCENC  =        35.94474901
  PAW double counting   =       431.55465926     -432.97585825
  entropy T*S    EENTRO =        -0.00000000
  eigenvalues    EBANDS =      -169.97389929
  atomic energy  EATOM  =       344.16897840
  Solvation  Ediel_sol  =         0.00000000
  ---------------------------------------------------
  free energy    TOTEN  =       -32.81429205 eV

  energy without entropy =      -32.81429205  energy(sigma->0) =      -32.81429205


--------------------------------------------------------------------------------------------------------




 average (electrostatic) potential at core
  the test charge radii are     0.6991  0.5201
  (the norm of the test charge is              1.0000)
       1 -61.6173       2 -61.6205       3 -45.1862       4 -45.1909       5 -45.1913
       6 -45.1876
 
 
 
 E-fermi :  -8.4029     XC(G=0):  -0.2899     alpha+bet : -0.0389


 k-point     1 :       0.0000    0.0000    0.0000
  band No.  band energies     occupation 
      1     -21.4879      2.00000
      2     -16.7249      2.00000
      3     -13.9862      2.00000
      4     -12.8589      2.00000
      5     -11.0056      2.00000
      6      -8.9235      2.00000
      7      -3.0568      0.00000
      8      -1.1192      0.00000
      9      -0.5662      0.00000
     10      -0.5629      0.00000
     11      -0.1335      0.00000
     12      -0.0391      0.00000


--------------------------------------------------------------------------------------------------------


 soft charge-density along one line, spin component           1
         0         1         2         3         4         5         6         7         8         9
 total charge-density along one line
 
 pseudopotential strength for first ion, spin component:           1
 10.436  13.883   0.000  -0.000   0.003  -0.000   0.000  -0.010
 13.883  18.467   0.000  -0.000   0.004  -0.000   0.000  -0.013
  0.000   0.000  -4.527  -0.008  -0.000   8.859   0.013   0.001
 -0.000  -0.000  -0.008  -4.526   0.000   0.013   8.858  -0.000
  0.003   0.004  -0.000   0.000  -4.546   0.001  -0.000   8.890
 -0.000  -0.000   8.859   0.013   0.001 -19.481  -0.021  -0.001
  0.000   0.000   0.013   8.858  -0.000  -0.021 -19.478   0.001
 -0.010  -0.013   0.001  -0.000   8.890  -0.001   0.001 -19.534
 total augmentation occupancy for first ion, spin component:           1
  7.281  -2.994   0.007  -0.000   0.297   0.001   0.000   0.054
 -2.994   1.257  -0.004   0.000  -0.177  -0.001  -0.000  -0.031
  0.007  -0.004   1.496   0.289   0.012   0.106   0.040   0.002
 -0.000   0.000   0.289   1.460  -0.007   0.040   0.101  -0.001
  0.297  -0.177   0.012  -0.007   1.957   0.002  -0.001   0.173
  0.001  -0.001   0.106   0.040   0.002   0.008   0.004   0.000
  0.000  -0.000   0.040   0.101  -0.001   0.004   0.007  -0.000
  0.054  -0.031   0.002  -0.001   0.173   0.000  -0.000   0.016


----------------------------------------- Iteration    1(   7)  ---------------------------------------


    POTLOK:  cpu time    2.1740: real time    2.1742
    SETDIJ:  cpu time    0.0014: real time    0.0014
     EDDAV:  cpu time    1.0473: real time    1.0473
       DOS:  cpu time    0.0002: real time    0.0002
    CHARGE:  cpu time    0.2470: real time    0.2470
    MIXING:  cpu time    0.0655: real time    0.0655
    --------------------------------------------
      LOOP:  cpu time    3.5367: real time    3.5395

 eigenvalue-minimisations  :    36
 total energy-change (2. order) : 0.7322452E+00  (-0.2002099E+00)
 number of electron      11.9999997 magnetization 
 augmentation part        0.2711000 magnetization 

 Broyden mixing:
  rms(total) = 0.23230E+00    rms(broyden)= 0.23222E+00
  rms(prec ) = 0.24383E+00
  weight for this iteration     100.00

 eigenvalues of (default mixing * dielectric matrix)
  average eigenvalue GAMMA=   1.9043
  1.5226  2.2861

 Free energy of the ion-electron system (eV)
  ---------------------------------------------------
  alpha Z        PSCENC =         0.07622704
  Ewald energy   TEWEN  =       381.93099833
  -Hartree energ DENC   =      -642.83846721
  -exchange      EXHF   =         0.00000000
  -V(xc)+E(xc)   XCENC  =        37.17750110
  PAW double counting   =       691.84582485     -693.35617377
  entropy T*S    EENTRO =        -0.00000000
  eigenvalues    EBANDS =      -151.08693557
  atomic energy  EATOM  =       344.16897840
  Solvation  Ediel_sol  =         0.00000000
  ---------------------------------------------------
  free energy    TOTEN  =       -32.08204682 eV

  energy without entropy =      -32.08204682  energy(sigma->0) =      -32.08204682


--------------------------------------------------------------------------------------------------------




 average (electrostatic) potential at core
  the test charge radii are     0.6991  0.5201
  (the norm of the test charge is              1.0000)
       1 -59.2131       2 -59.2091       3 -43.5780       4 -43.5768       5 -43.5773
       6 -43.5770
 
 
 
 E-fermi :  -7.0439     XC(G=0):  -0.3163     alpha+bet : -0.0389


 k-point     1 :       0.0000    0.0000    0.0000
  band No.  band energies     occupation 
      1     -19.6967      2.00000
      2     -15.2074      2.00000
      3     -12.4455      2.00000
      4     -11.0993      2.00000
      5      -9.5510      2.00000
      6      -7.5434      2.00000
      7      -1.8427      0.00000
      8      -0.9465      0.00000
      9      -0.4881      0.00000
     10      -0.4497      0.00000
     11      -0.1507      0.00000
     12      -0.0274      0.00000


--------------------------------------------------------------------------------------------------------


 soft charge-density along one line, spin component           1
         0         1         2         3         4         5         6         7         8         9
 total charge-density along one line
 
 pseudopotential strength for first ion, spin component:           1
 10.293  13.690   0.000   0.000   0.001  -0.000  -0.000  -0.003
 13.690  18.207   0.000   0.000   0.001  -0.000  -0.000  -0.004
  0.000   0.000  -4.395  -0.003  -0.000   8.595   0.005   0.000
  0.000   0.000  -0.003  -4.395   0.000   0.005   8.594  -0.000
  0.001   0.001  -0.000   0.000  -4.406   0.000  -0.000   8.611
 -0.000  -0.000   8.595   0.005   0.000 -18.945  -0.005  -0.001
 -0.000  -0.000   0.005   8.594  -0.000  -0.005 -18.944   0.000
 -0.003  -0.004   0.000  -0.000   8.611  -0.001   0.000 -18.969
 total augmentation occupancy for first ion, spin component:           1
  8.122  -3.537   0.010  -0.000   0.374   0.002  -0.000   0.064
 -3.537   1.564  -0.005   0.001  -0.218  -0.001   0.000  -0.037
  0.010  -0.005   1.433   0.272   0.012   0.112   0.039   0.002
 -0.000   0.001   0.272   1.399  -0.007   0.039   0.107  -0.001
  0.374  -0.218   0.012  -0.007   1.918   0.002  -0.001   0.181
  0.002  -0.001   0.112   0.039   0.002   0.009   0.005   0.000
 -0.000   0.000   0.039   0.107  -0.001   0.005   0.009  -0.000
  0.064  -0.037   0.002  -0.001   0.181   0.000  -0.000   0.018


----------------------------------------- Iteration    1(   8)  ---------------------------------------


    POTLOK:  cpu time    2.1673: real time    2.1674
    SETDIJ:  cpu time    0.0015: real time    0.0015
     EDDAV:  cpu time    0.8396: real time    0.8397
       DOS:  cpu time    0.0002: real time    0.0002
    CHARGE:  cpu time    0.2431: real time    0.2431
    MIXING:  cpu time    0.0686: real time    0.0686
    --------------------------------------------
      LOOP:  cpu time    3.3217: real time    3.3242

 eigenvalue-minimisations  :    27
 total energy-change (2. order) : 0.1160328E+00  (-0.1667814E-01)
 number of electron      11.9999997 magnetization 
 augmentation part        0.2697900 magnetization 

 Broyden mixing:
  rms(total) = 0.28012E-01    rms(broyden)= 0.27989E-01
  rms(prec ) = 0.39064E-01
  weight for this iteration     100.00

 eigenvalues of (default mixing * dielectric matrix)
  average eigenvalue GAMMA=   1.5965
  2.2293  1.1314  1.4289

 Free energy of the ion-electron system (eV)
  ---------------------------------------------------
  alpha Z        PSCENC =         0.07622704
  Ewald energy   TEWEN  =       381.93099833
  -Hartree energ DENC   =      -649.09342803
  -exchange      EXHF   =         0.00000000
  -V(xc)+E(xc)   XCENC  =        37.69842463
  PAW double counting   =       874.17758947     -875.64080558
  entropy T*S    EENTRO =        -0.00000000
  eigenvalues    EBANDS =      -145.28399832
  atomic energy  EATOM  =       344.16897840
  Solvation  Ediel_sol  =         0.00000000
  ---------------------------------------------------
  free energy    TOTEN  =       -31.96601406 eV

  energy without entropy =      -31.96601406  energy(sigma->0) =      -31.96601406


--------------------------------------------------------------------------------------------------------




 average (electrostatic) potential at core
  the test charge radii are     0.6991  0.5201
  (the norm of the test charge is              1.0000)
       1 -59.1719       2 -59.1782       3 -42.4828       4 -42.4757       5 -42.4788
       6 -42.4858
 
 
 
 E-fermi :  -6.7499     XC(G=0):  -0.3316     alpha+bet : -0.0389


 k-point     1 :       0.0000    0.0000    0.0000
  band No.  band energies     occupation 
      1     -19.2946      2.00000
      2     -14.6480      2.00000
      3     -11.8937      2.00000
      4     -10.6291      2.00000
      5      -8.9264      2.00000
      6      -7.2501      2.00000
      7      -1.5318      0.00000
      8      -0.8115      0.00000
      9      -0.3993      0.00000
     10      -0.3747      0.00000
     11      -0.1203      0.00000
     12      -0.0220      0.00000


--------------------------------------------------------------------------------------------------------


 soft charge-density along one line, spin component           1
         0         1         2         3         4         5         6         7         8         9
 total charge-density along one line
 
 pseudopotential strength for first ion, spin component:           1
 10.277  13.668  -0.000  -0.000   0.000   0.000   0.000  -0.003
 13.668  18.178  -0.000  -0.000   0.001   0.000   0.000  -0.004
 -0.000  -0.000  -4.397  -0.002  -0.000   8.604   0.002   0.000
 -0.000  -0.000  -0.002  -4.397   0.000   0.002   8.603  -0.000
  0.000   0.001  -0.000   0.000  -4.404   0.000  -0.000   8.613
  0.000   0.000   8.604   0.002   0.000 -18.975   0.001  -0.000
  0.000   0.000   0.002   8.603  -0.000   0.001 -18.975  -0.000
 -0.003  -0.004   0.000  -0.000   8.613  -0.000  -0.000 -18.986
 total augmentation occupancy for first ion, spin component:           1
  7.772  -3.324   0.012   0.000   0.450   0.002  -0.000   0.075
 -3.324   1.449  -0.008  -0.001  -0.278  -0.001  -0.000  -0.044
  0.012  -0.008   1.431   0.277   0.013   0.109   0.039   0.002
  0.000  -0.001   0.277   1.397  -0.007   0.039   0.104  -0.001
  0.450  -0.278   0.013  -0.007   1.917   0.002  -0.001   0.179
  0.002  -0.001   0.109   0.039   0.002   0.009   0.004   0.000
 -0.000  -0.000   0.039   0.104  -0.001   0.004   0.008  -0.000
  0.075  -0.044   0.002  -0.001   0.179   0.000  -0.000   0.017


----------------------------------------- Iteration    1(   9)  ---------------------------------------


    POTLOK:  cpu time    2.1744: real time    2.1744
    SETDIJ:  cpu time    0.0025: real time    0.0025
     EDDAV:  cpu time    1.2548: real time    1.2548
       DOS:  cpu time    0.0001: real time    0.0001
    CHARGE:  cpu time    0.2436: real time    0.2436
    MIXING:  cpu time    0.0694: real time    0.0694
    --------------------------------------------
      LOOP:  cpu time    3.7461: real time    3.7488

 eigenvalue-minimisations  :    45
 total energy-change (2. order) : 0.5288955E-02  (-0.1188077E-02)
 number of electron      11.9999997 magnetization 
 augmentation part        0.2688757 magnetization 

 Broyden mixing:
  rms(total) = 0.20018E-01    rms(broyden)= 0.20015E-01
  rms(prec ) = 0.28870E-01
  weight for this iteration     100.00

 eigenvalues of (default mixing * dielectric matrix)
  average eigenvalue GAMMA=   1.7382
  2.2075  2.2075  1.2688  1.2688

 Free energy of the ion-electron system (eV)
  ---------------------------------------------------
  alpha Z        PSCENC =         0.07622704
  Ewald energy   TEWEN  =       381.93099833
  -Hartree energ DENC   =      -650.58759557
  -exchange      EXHF   =         0.00000000
  -V(xc)+E(xc)   XCENC  =        37.75220602
  PAW double counting   =       871.59333160     -873.06115396
  entropy T*S    EENTRO =        -0.00000000
  eigenvalues    EBANDS =      -143.83371697
  atomic energy  EATOM  =       344.16897840
  Solvation  Ediel_sol  =         0.00000000
  ---------------------------------------------------
  free energy    TOTEN  =       -31.96072510 eV

  energy without entropy =      -31.96072510  energy(sigma->0) =      -31.96072510


--------------------------------------------------------------------------------------------------------




 average (electrostatic) potential at core
  the test charge radii are     0.6991  0.5201
  (the norm of the test charge is              1.0000)
       1 -58.9888       2 -58.9887       3 -42.4031       4 -42.4013       5 -42.4023
       6 -42.4043
 
 
 
 E-fermi :  -6.6265     XC(G=0):  -0.3356     alpha+bet : -0.0389


 k-point     1 :       0.0000    0.0000    0.0000
  band No.  band energies     occupation 
      1     -19.1470      2.00000
      2     -14.5417      2.00000
      3     -11.7815      2.00000
      4     -10.4995      2.00000
      5      -8.8301      2.00000
      6      -7.1170      2.00000
      7      -1.4224      0.00000
      8      -0.7686      0.00000
      9      -0.3706      0.00000
     10      -0.3466      0.00000
     11      -0.1026      0.00000
     12      -0.0230      0.00000


--------------------------------------------------------------------------------------------------------


 soft charge-density along one line, spin component           1
         0         1         2         3         4         5         6         7         8         9
 total charge-density along one line
 
 pseudopotential strength for first ion, spin component:           1
 10.267  13.654  -0.000  -0.000   0.000   0.000   0.000  -0.002
 13.654  18.159  -0.000  -0.000   0.000   0.000   0.000  -0.003
 -0.000  -0.000  -4.387  -0.002  -0.000   8.583   0.002   0.000
 -0.000  -0.000  -0.002  -4.386   0.000   0.002   8.583  -0.000
  0.000   0.000  -0.000   0.000  -4.394   0.000  -0.000   8.593
  0.000   0.000   8.583   0.002   0.000 -18.934   0.001  -0.000
  0.000   0.000   0.002   8.583  -0.000   0.001 -18.934  -0.000
 -0.002  -0.003   0.000  -0.000   8.593  -0.000  -0.000 -18.944
 total augmentation occupancy for first ion, spin component:           1
  7.687  -3.275   0.011   0.000   0.418   0.002   0.000   0.071
 -3.275   1.421  -0.007  -0.000  -0.251  -0.001  -0.000  -0.041
  0.011  -0.007   1.427   0.275   0.013   0.109   0.038   0.002
  0.000  -0.000   0.275   1.392  -0.007   0.038   0.104  -0.001
  0.418  -0.251   0.013  -0.007   1.914   0.002  -0.001   0.179
  0.002  -0.001   0.109   0.038   0.002   0.009   0.004   0.000
  0.000  -0.000   0.038   0.104  -0.001   0.004   0.008  -0.000
  0.071  -0.041   0.002  -0.001   0.179   0.000  -0.000   0.017


----------------------------------------- Iteration    1(  10)  ---------------------------------------


    POTLOK:  cpu time    2.1910: real time    2.1911
    SETDIJ:  cpu time    0.0027: real time    0.0027
     EDDAV:  cpu time    0.7714: real time    0.7714
       DOS:  cpu time    0.0001: real time    0.0001
    CHARGE:  cpu time    0.2430: real time    0.2430
    MIXING:  cpu time    0.0696: real time    0.0696
    --------------------------------------------
      LOOP:  cpu time    3.2791: real time    3.2816

 eigenvalue-minimisations  :    24
 total energy-change (2. order) : 0.3521900E-02  (-0.2348897E-03)
 number of electron      11.9999997 magnetization 
 augmentation part        0.2687176 magnetization 

 Broyden mixing:
  rms(total) = 0.73040E-02    rms(broyden)= 0.73035E-02
  rms(prec ) = 0.14310E-01
  weight for this iteration     100.00

 eigenvalues of (default mixing * dielectric matrix)
  average eigenvalue GAMMA=   1.8017
  3.0043  2.3759  1.0787  1.2747  1.2747

 Free energy of the ion-electron system (eV)
  ---------------------------------------------------
  alpha Z        PSCENC =         0.07622704
  Ewald energy   TEWEN  =       381.93099833
  -Hartree energ DENC   =      -652.39104104
  -exchange      EXHF   =         0.00000000
  -V(xc)+E(xc)   XCENC  =        37.80338172
  PAW double counting   =       856.22021907     -857.68216586
  entropy T*S    EENTRO =        -0.00000000
  eigenvalues    EBANDS =      -142.08380087
  atomic energy  EATOM  =       344.16897840
  Solvation  Ediel_sol  =         0.00000000
  ---------------------------------------------------
  free energy    TOTEN  =       -31.95720320 eV

  energy without entropy =      -31.95720320  energy(sigma->0) =      -31.95720320


--------------------------------------------------------------------------------------------------------




 average (electrostatic) potential at core
  the test charge radii are     0.6991  0.5201
  (the norm of the test charge is              1.0000)
       1 -58.8687       2 -58.8690       3 -42.2426       4 -42.2458       5 -42.2465
       6 -42.2440
 
 
 
 E-fermi :  -6.4896     XC(G=0):  -0.3351     alpha+bet : -0.0389


 k-point     1 :       0.0000    0.0000    0.0000
  band No.  band energies     occupation 
      1     -18.9906      2.00000
      2     -14.4023      2.00000
      3     -11.6382      2.00000
      4     -10.3551      2.00000
      5      -8.6926      2.00000
      6      -6.9632      2.00000
      7      -1.2747      0.00000
      8      -0.6249      0.00000
      9      -0.2642      0.00000
     10      -0.2491      0.00000
     11      -0.0271      0.00000
     12      -0.0063      0.00000


--------------------------------------------------------------------------------------------------------


 soft charge-density along one line, spin component           1
         0         1         2         3         4         5         6         7         8         9
 total charge-density along one line
 
 pseudopotential strength for first ion, spin component:           1
 10.259  13.643   0.000   0.000   0.000  -0.000  -0.000  -0.002
 13.643  18.144   0.000   0.000   0.000  -0.000  -0.000  -0.002
  0.000   0.000  -4.381  -0.002  -0.000   8.572   0.002   0.000
  0.000   0.000  -0.002  -4.380   0.000   0.002   8.572  -0.000
  0.000   0.000  -0.000   0.000  -4.388   0.000  -0.000   8.581
 -0.000  -0.000   8.572   0.002   0.000 -18.912   0.001  -0.000
 -0.000  -0.000   0.002   8.572  -0.000   0.001 -18.912  -0.000
 -0.002  -0.002   0.000  -0.000   8.581  -0.000  -0.000 -18.922
 total augmentation occupancy for first ion, spin component:           1
  7.643  -3.249   0.011   0.000   0.420   0.002   0.000   0.071
 -3.249   1.407  -0.007  -0.000  -0.252  -0.001  -0.000  -0.041
  0.011  -0.007   1.425   0.275   0.013   0.108   0.038   0.002
  0.000  -0.000   0.275   1.390  -0.007   0.038   0.103  -0.001
  0.420  -0.252   0.013  -0.007   1.913   0.002  -0.001   0.178
  0.002  -0.001   0.108   0.038   0.002   0.009   0.004   0.000
  0.000  -0.000   0.038   0.103  -0.001   0.004   0.008  -0.000
  0.071  -0.041   0.002  -0.001   0.178   0.000  -0.000   0.017


----------------------------------------- Iteration    1(  11)  ---------------------------------------


    POTLOK:  cpu time    2.2120: real time    2.2121
    SETDIJ:  cpu time    0.0030: real time    0.0030
     EDDAV:  cpu time    0.8395: real time    0.8395
       DOS:  cpu time    0.0001: real time    0.0001
    CHARGE:  cpu time    0.2441: real time    0.2441
    MIXING:  cpu time    0.0709: real time    0.0709
    --------------------------------------------
      LOOP:  cpu time    3.3717: real time    3.8040

 eigenvalue-minimisations  :    27
 total energy-change (2. order) : 0.2592651E-02  (-0.2631391E-03)
 number of electron      11.9999997 magnetization 
 augmentation part        0.2683071 magnetization 

 Broyden mixing:
  rms(total) = 0.46635E-02    rms(broyden)= 0.46630E-02
  rms(prec ) = 0.87297E-02
  weight for this iteration     100.00

 eigenvalues of (default mixing * dielectric matrix)
  average eigenvalue GAMMA=   2.2066
  4.7387  2.6810  2.2512  1.0020  1.2833  1.2833

 Free energy of the ion-electron system (eV)
  ---------------------------------------------------
  alpha Z        PSCENC =         0.07622704
  Ewald energy   TEWEN  =       381.93099833
  -Hartree energ DENC   =      -653.87091928
  -exchange      EXHF   =         0.00000000
  -V(xc)+E(xc)   XCENC  =        37.85921751
  PAW double counting   =       856.37690753     -857.83806612
  entropy T*S    EENTRO =        -0.00000000
  eigenvalues    EBANDS =      -140.65795396
  atomic energy  EATOM  =       344.16897840
  Solvation  Ediel_sol  =         0.00000000
  ---------------------------------------------------
  free energy    TOTEN  =       -31.95461055 eV

  energy without entropy =      -31.95461055  energy(sigma->0) =      -31.95461055


--------------------------------------------------------------------------------------------------------




 average (electrostatic) potential at core
  the test charge radii are     0.6991  0.5201
  (the norm of the test charge is              1.0000)
       1 -58.7516       2 -58.7513       3 -42.1088       4 -42.1133       5 -42.1138
       6 -42.1099
 
 
 
 E-fermi :  -6.3490     XC(G=0):  -0.3230     alpha+bet : -0.0389


 k-point     1 :       0.0000    0.0000    0.0000
  band No.  band energies     occupation 
      1     -18.8656      2.00000
      2     -14.2848      2.00000
      3     -11.5201      2.00000
      4     -10.2347      2.00000
      5      -8.5771      2.00000
      6      -6.8466      2.00000
      7      -1.1578      0.00000
      8      -0.4751      0.00000
      9      -0.1370      0.00000
     10      -0.1342      0.00000
     11       0.0336      0.00000
     12       0.0347      0.00000


--------------------------------------------------------------------------------------------------------


 soft charge-density along one line, spin component           1
         0         1         2         3         4         5         6         7         8         9
 total charge-density along one line
 
 pseudopotential strength for first ion, spin component:           1
 10.251  13.633   0.000   0.000  -0.000  -0.000  -0.000  -0.001
 13.633  18.130   0.000   0.000  -0.000  -0.000  -0.000  -0.002
  0.000   0.000  -4.374  -0.002  -0.000   8.560   0.001   0.000
  0.000   0.000  -0.002  -4.374   0.000   0.001   8.560  -0.000
 -0.000  -0.000  -0.000   0.000  -4.381   0.000  -0.000   8.569
 -0.000  -0.000   8.560   0.001   0.000 -18.889   0.001  -0.000
 -0.000  -0.000   0.001   8.560  -0.000   0.001 -18.889  -0.000
 -0.001  -0.002   0.000  -0.000   8.569  -0.000  -0.000 -18.898
 total augmentation occupancy for first ion, spin component:           1
  7.618  -3.235   0.011  -0.000   0.419   0.002  -0.000   0.071
 -3.235   1.399  -0.006  -0.000  -0.252  -0.001   0.000  -0.041
  0.011  -0.006   1.423   0.275   0.013   0.108   0.038   0.002
 -0.000  -0.000   0.275   1.388  -0.007   0.038   0.103  -0.001
  0.419  -0.252   0.013  -0.007   1.912   0.002  -0.001   0.178
  0.002  -0.001   0.108   0.038   0.002   0.009   0.004   0.000
 -0.000   0.000   0.038   0.103  -0.001   0.004   0.008  -0.000
  0.071  -0.041   0.002  -0.001   0.178   0.000  -0.000   0.017


----------------------------------------- Iteration    1(  12)  ---------------------------------------


    POTLOK:  cpu time    2.2289: real time    2.2292
    SETDIJ:  cpu time    0.0029: real time    0.0029
     EDDAV:  cpu time    1.0460: real time    1.0460
       DOS:  cpu time    0.0001: real time    0.0001
    CHARGE:  cpu time    0.2455: real time    0.2455
    MIXING:  cpu time    0.0739: real time    0.0739
    --------------------------------------------
      LOOP:  cpu time    3.5985: real time    3.6012

 eigenvalue-minimisations  :    36
 total energy-change (2. order) :-0.6242349E-02  (-0.2076064E-03)
 number of electron      11.9999997 magnetization 
 augmentation part        0.2679533 magnetization 

 Broyden mixing:
  rms(total) = 0.31846E-02    rms(broyden)= 0.31837E-02
  rms(prec ) = 0.43932E-02
  weight for this iteration     100.00

 eigenvalues of (default mixing * dielectric matrix)
  average eigenvalue GAMMA=   1.9746
  4.6434  2.6249  2.2753  1.2934  1.2934  0.9777  0.7140

 Free energy of the ion-electron system (eV)
  ---------------------------------------------------
  alpha Z        PSCENC =         0.07622704
  Ewald energy   TEWEN  =       381.93099833
  -Hartree energ DENC   =      -655.04858541
  -exchange      EXHF   =         0.00000000
  -V(xc)+E(xc)   XCENC  =        37.88015193
  PAW double counting   =       853.40365418     -854.86642936
  entropy T*S    EENTRO =        -0.00000000
  eigenvalues    EBANDS =      -139.50584803
  atomic energy  EATOM  =       344.16897840
  Solvation  Ediel_sol  =         0.00000000
  ---------------------------------------------------
  free energy    TOTEN  =       -31.96085290 eV

  energy without entropy =      -31.96085290  energy(sigma->0) =      -31.96085290


--------------------------------------------------------------------------------------------------------




 average (electrostatic) potential at core
  the test charge radii are     0.6991  0.5201
  (the norm of the test charge is              1.0000)
       1 -58.6510       2 -58.6507       3 -42.0105       4 -42.0128       5 -42.0138
       6 -42.0119
 
 
 
 E-fermi :  -6.2566     XC(G=0):  -0.2952     alpha+bet : -0.0389


 k-point     1 :       0.0000    0.0000    0.0000
  band No.  band energies     occupation 
      1     -18.7713      2.00000
      2     -14.1844      2.00000
      3     -11.4236      2.00000
      4     -10.1409      2.00000
      5      -8.4802      2.00000
      6      -6.7526      2.00000
      7      -1.0696      0.00000
      8      -0.3260      0.00000
      9       0.0278      0.00000
     10       0.0323      0.00000
     11       0.0637      0.00000
     12       0.1260      0.00000


--------------------------------------------------------------------------------------------------------


 soft charge-density along one line, spin component           1
         0         1         2         3         4         5         6         7         8         9
 total charge-density along one line
 
 pseudopotential strength for first ion, spin component:           1
 10.246  13.626  -0.000  -0.000   0.000  -0.000   0.000  -0.002
 13.626  18.120  -0.000  -0.000   0.000  -0.000   0.000  -0.002
 -0.000  -0.000  -4.369  -0.002  -0.000   8.549   0.002   0.000
 -0.000  -0.000  -0.002  -4.369   0.000   0.002   8.549  -0.000
  0.000   0.000  -0.000   0.000  -4.376   0.000  -0.000   8.558
 -0.000  -0.000   8.549   0.002   0.000 -18.867   0.001  -0.000
  0.000   0.000   0.002   8.549  -0.000   0.001 -18.867  -0.000
 -0.002  -0.002   0.000  -0.000   8.558  -0.000  -0.000 -18.877
 total augmentation occupancy for first ion, spin component:           1
  7.617  -3.234   0.011  -0.000   0.421   0.002  -0.000   0.072
 -3.234   1.399  -0.006  -0.000  -0.252  -0.001  -0.000  -0.041
  0.011  -0.006   1.422   0.275   0.013   0.108   0.038   0.002
 -0.000  -0.000   0.275   1.387  -0.007   0.038   0.103  -0.001
  0.421  -0.252   0.013  -0.007   1.911   0.002  -0.001   0.178
  0.002  -0.001   0.108   0.038   0.002   0.009   0.004   0.000
 -0.000  -0.000   0.038   0.103  -0.001   0.004   0.008  -0.000
  0.072  -0.041   0.002  -0.001   0.178   0.000  -0.000   0.017


----------------------------------------- Iteration    1(  13)  ---------------------------------------


    POTLOK:  cpu time    2.2309: real time    2.2310
    SETDIJ:  cpu time    0.0030: real time    0.0030
     EDDAV:  cpu time    0.8387: real time    0.8387
       DOS:  cpu time    0.0001: real time    0.0001
    CHARGE:  cpu time    0.2447: real time    0.2447
    MIXING:  cpu time    0.0736: real time    0.0736
    --------------------------------------------
      LOOP:  cpu time    3.3922: real time    3.3945

 eigenvalue-minimisations  :    27
 total energy-change (2. order) :-0.2129119E-02  (-0.2239353E-04)
 number of electron      11.9999997 magnetization 
 augmentation part        0.2680213 magnetization 

 Broyden mixing:
  rms(total) = 0.14787E-02    rms(broyden)= 0.14786E-02
  rms(prec ) = 0.28089E-02
  weight for this iteration     100.00

 eigenvalues of (default mixing * dielectric matrix)
  average eigenvalue GAMMA=   2.3079
  5.6619  3.6818  2.4775  2.1372  1.2931  1.2931  1.0029  0.9157

 Free energy of the ion-electron system (eV)
  ---------------------------------------------------
  alpha Z        PSCENC =         0.07622704
  Ewald energy   TEWEN  =       381.93099833
  -Hartree energ DENC   =      -654.93651814
  -exchange      EXHF   =         0.00000000
  -V(xc)+E(xc)   XCENC  =        37.87274625
  PAW double counting   =       855.01434709     -856.47585165
  entropy T*S    EENTRO =        -0.00000000
  eigenvalues    EBANDS =      -139.61390934
  atomic energy  EATOM  =       344.16897840
  Solvation  Ediel_sol  =         0.00000000
  ---------------------------------------------------
  free energy    TOTEN  =       -31.96298202 eV

  energy without entropy =      -31.96298202  energy(sigma->0) =      -31.96298202


--------------------------------------------------------------------------------------------------------




 average (electrostatic) potential at core
  the test charge radii are     0.6991  0.5201
  (the norm of the test charge is              1.0000)
       1 -58.6691       2 -58.6691       3 -42.0149       4 -42.0174       5 -42.0183
       6 -42.0163
 
 
 
 E-fermi :  -6.2512     XC(G=0):  -0.2897     alpha+bet : -0.0389


 k-point     1 :       0.0000    0.0000    0.0000
  band No.  band energies     occupation 
      1     -18.7815      2.00000
      2     -14.1935      2.00000
      3     -11.4316      2.00000
      4     -10.1506      2.00000
      5      -8.4872      2.00000
      6      -6.7625      2.00000
      7      -1.0810      0.00000
      8      -0.3250      0.00000
      9       0.0393      0.00000
     10       0.0415      0.00000
     11       0.0501      0.00000
     12       0.1399      0.00000


--------------------------------------------------------------------------------------------------------


 soft charge-density along one line, spin component           1
         0         1         2         3         4         5         6         7         8         9
 total charge-density along one line
 
 pseudopotential strength for first ion, spin component:           1
 10.246  13.627  -0.000  -0.000   0.000  -0.000   0.000  -0.002
 13.627  18.121  -0.000  -0.000   0.000  -0.000   0.000  -0.002
 -0.000  -0.000  -4.370  -0.002  -0.000   8.551   0.002   0.000
 -0.000  -0.000  -0.002  -4.370   0.000   0.002   8.551  -0.000
  0.000   0.000  -0.000   0.000  -4.377   0.000  -0.000   8.560
 -0.000  -0.000   8.551   0.002   0.000 -18.872   0.001  -0.000
  0.000   0.000   0.002   8.551  -0.000   0.001 -18.872  -0.000
 -0.002  -0.002   0.000  -0.000   8.560  -0.000  -0.000 -18.881
 total augmentation occupancy for first ion, spin component:           1
  7.610  -3.230   0.011  -0.000   0.420   0.002  -0.000   0.072
 -3.230   1.397  -0.006  -0.000  -0.252  -0.001  -0.000  -0.041
  0.011  -0.006   1.422   0.275   0.013   0.108   0.038   0.002
 -0.000  -0.000   0.275   1.388  -0.007   0.038   0.103  -0.001
  0.420  -0.252   0.013  -0.007   1.911   0.002  -0.001   0.178
  0.002  -0.001   0.108   0.038   0.002   0.009   0.004   0.000
 -0.000  -0.000   0.038   0.103  -0.001   0.004   0.008  -0.000
  0.072  -0.041   0.002  -0.001   0.178   0.000  -0.000   0.017


----------------------------------------- Iteration    1(  14)  ---------------------------------------


    POTLOK:  cpu time    2.2609: real time    2.2610
    SETDIJ:  cpu time    0.0034: real time    0.0034
     EDDAV:  cpu time    0.7736: real time    0.7738
       DOS:  cpu time    0.0002: real time    0.0002
    CHARGE:  cpu time    0.2438: real time    0.2438
    MIXING:  cpu time    0.0771: real time    0.0771
    --------------------------------------------
      LOOP:  cpu time    3.3611: real time    3.4127

 eigenvalue-minimisations  :    24
 total energy-change (2. order) :-0.4178564E-02  (-0.9038582E-04)
 number of electron      11.9999997 magnetization 
 augmentation part        0.2680621 magnetization 

 Broyden mixing:
  rms(total) = 0.20845E-02    rms(broyden)= 0.20843E-02
  rms(prec ) = 0.23672E-02
  weight for this iteration     100.00

 eigenvalues of (default mixing * dielectric matrix)
  average eigenvalue GAMMA=   2.2944
  6.1716  3.6861  2.4155  2.4155  1.4310  1.2110  1.2110  1.0538  1.0538

 Free energy of the ion-electron system (eV)
  ---------------------------------------------------
  alpha Z        PSCENC =         0.07622704
  Ewald energy   TEWEN  =       381.93099833
  -Hartree energ DENC   =      -655.01538652
  -exchange      EXHF   =         0.00000000
  -V(xc)+E(xc)   XCENC  =        37.86477360
  PAW double counting   =       856.03314243     -857.49361654
  entropy T*S    EENTRO =        -0.00000000
  eigenvalues    EBANDS =      -139.53227733
  atomic energy  EATOM  =       344.16897840
  Solvation  Ediel_sol  =         0.00000000
  ---------------------------------------------------
  free energy    TOTEN  =       -31.96716058 eV

  energy without entropy =      -31.96716058  energy(sigma->0) =      -31.96716058


--------------------------------------------------------------------------------------------------------




 average (electrostatic) potential at core
  the test charge radii are     0.6991  0.5201
  (the norm of the test charge is              1.0000)
       1 -58.6672       2 -58.6673       3 -42.0076       4 -42.0102       5 -42.0109
       6 -42.0088
 
 
 
 E-fermi :  -6.2792     XC(G=0):  -0.2595     alpha+bet : -0.0389


 k-point     1 :       0.0000    0.0000    0.0000
  band No.  band energies     occupation 
      1     -18.7744      2.00000
      2     -14.1876      2.00000
      3     -11.4241      2.00000
      4     -10.1440      2.00000
      5      -8.4798      2.00000
      6      -6.7563      2.00000
      7      -1.0827      0.00000
      8      -0.3049      0.00000
      9       0.0123      0.00000
     10       0.1030      0.00000
     11       0.1093      0.00000
     12       0.2009      0.00000


--------------------------------------------------------------------------------------------------------


 soft charge-density along one line, spin component           1
         0         1         2         3         4         5         6         7         8         9
 total charge-density along one line
 
 pseudopotential strength for first ion, spin component:           1
 10.246  13.626   0.000   0.000  -0.000  -0.000  -0.000  -0.002
 13.626  18.121   0.000   0.000  -0.000  -0.000  -0.000  -0.002
  0.000   0.000  -4.370  -0.002  -0.000   8.551   0.001   0.000
  0.000   0.000  -0.002  -4.370   0.000   0.001   8.551  -0.000
 -0.000  -0.000  -0.000   0.000  -4.377   0.000  -0.000   8.560
 -0.000  -0.000   8.551   0.001   0.000 -18.872   0.001  -0.000
 -0.000  -0.000   0.001   8.551  -0.000   0.001 -18.872  -0.000
 -0.002  -0.002   0.000  -0.000   8.560  -0.000  -0.000 -18.881
 total augmentation occupancy for first ion, spin component:           1
  7.606  -3.228   0.011  -0.000   0.420   0.002  -0.000   0.072
 -3.228   1.395  -0.006  -0.000  -0.252  -0.001  -0.000  -0.041
  0.011  -0.006   1.422   0.275   0.013   0.108   0.038   0.002
 -0.000  -0.000   0.275   1.388  -0.007   0.038   0.103  -0.001
  0.420  -0.252   0.013  -0.007   1.911   0.002  -0.001   0.178
  0.002  -0.001   0.108   0.038   0.002   0.009   0.004   0.000
 -0.000  -0.000   0.038   0.103  -0.001   0.004   0.008  -0.000
  0.072  -0.041   0.002  -0.001   0.178   0.000  -0.000   0.017


[...]
      3.911281  1.309929  1.262149    -0.117300   -0.153976   -0.141659  
 
   6 f  =   42.589651 THz   267.598672 2PiTHz 1420.637811 cm-1   176.136703 meV
             X         Y         Z           dx          dy          dz
      1.987805  1.939168  1.899695     0.225634    0.005144   -0.000353  
      3.321200  1.973573  1.899889     0.225472    0.006194    0.000533  
      1.397520  2.602827  2.537425    -0.385582   -0.204499   -0.183325  
      1.432351  1.246333  1.262096    -0.396523    0.185251    0.183484  
      3.876432  2.666391  2.537551    -0.395324    0.184881    0.182748  
      3.911281  1.309929  1.262149    -0.386446   -0.205282   -0.183113  
 
   7 f  =   40.025148 THz   251.485422 2PiTHz 1335.095190 cm-1   165.530766 meV
             X         Y         Z           dx          dy          dz
      1.987805  1.939168  1.899695     0.286212    0.007944    0.000329  
      3.321200  1.973573  1.899889    -0.286216   -0.007418   -0.000130  
      1.397520  2.602827  2.537425     0.413799    0.144103    0.126940  
      1.432351  1.246333  1.262096     0.422185   -0.124067   -0.126962  
      3.876432  2.666391  2.537551    -0.421314    0.124372    0.125597  
      3.911281  1.309929  1.262149    -0.414971   -0.146170   -0.125971  
 
   8 f  =   35.952621 THz   225.896981 2PiTHz 1199.250317 cm-1   148.688143 meV
             X         Y         Z           dx          dy          dz
      1.987805  1.939168  1.899695     0.007776   -0.313800   -0.295126  
      3.321200  1.973573  1.899889    -0.008922    0.313841    0.294507  
      1.397520  2.602827  2.537425     0.377694    0.094991    0.080354  
      1.432351  1.246333  1.262096    -0.380330    0.074688    0.079860  
      3.876432  2.666391  2.537551     0.381301   -0.076025   -0.079056  
      3.911281  1.309929  1.262149    -0.376353   -0.095158   -0.078760  
 
   9 f  =   30.991991 THz   194.728422 2PiTHz 1033.781508 cm-1   128.172618 meV
             X         Y         Z           dx          dy          dz
      1.987805  1.939168  1.899695     0.000297   -0.001072    0.001058  
      3.321200  1.973573  1.899889    -0.000239   -0.000956    0.000814  
      1.397520  2.602827  2.537425    -0.007962    0.344458   -0.366149  
      1.432351  1.246333  1.262096     0.009297   -0.340701    0.362548  
      3.876432  2.666391  2.537551     0.007691   -0.340175    0.362896  
      3.911281  1.309929  1.262149    -0.009337    0.343499   -0.366143  
 
  10 f  =   28.179545 THz   177.057302 2PiTHz  939.968408 cm-1   116.541271 meV
             X         Y         Z           dx          dy          dz
      1.987805  1.939168  1.899695     0.005498   -0.210206    0.222698  
      3.321200  1.973573  1.899889     0.003765   -0.154302    0.165020  
      1.397520  2.602827  2.537425    -0.007161    0.340133   -0.360848  
      1.432351  1.246333  1.262096    -0.009764    0.343234   -0.364925  
      3.876432  2.666391  2.537551    -0.007861    0.291768   -0.310117  
      3.911281  1.309929  1.262149    -0.007278    0.288133   -0.306053  
 
  11 f  =   28.095244 THz   176.527624 2PiTHz  937.156437 cm-1   116.192631 meV
             X         Y         Z           dx          dy          dz
      1.987805  1.939168  1.899695    -0.006877    0.273527   -0.292981  
      3.321200  1.973573  1.899889     0.008103   -0.308843    0.329131  
      1.397520  2.602827  2.537425     0.007676   -0.241407    0.257790  
      1.432351  1.246333  1.262096     0.004305   -0.240224    0.256977  
      3.876432  2.666391  2.537551    -0.008768    0.301379   -0.319528  
      3.911281  1.309929  1.262149    -0.006340    0.302194   -0.320312  
 
  12 f  =   23.927764 THz   150.342578 2PiTHz  798.144285 cm-1    98.957315 meV
             X         Y         Z           dx          dy          dz
      1.987805  1.939168  1.899695     0.002643   -0.098727   -0.091235  
      3.321200  1.973573  1.899889     0.002051   -0.095574   -0.093539  
      1.397520  2.602827  2.537425     0.428219    0.180199    0.159161  
      1.432351  1.246333  1.262096    -0.435803    0.157993    0.158515  
      3.876432  2.666391  2.537551    -0.437770    0.157222    0.160466  
      3.911281  1.309929  1.262149     0.427792    0.178747    0.160556  
 
  13 f  =    0.375662 THz     2.360351 2PiTHz   12.530722 cm-1     1.553612 meV
             X         Y         Z           dx          dy          dz
      1.987805  1.939168  1.899695    -0.255737   -0.099454   -0.128569  
      3.321200  1.973573  1.899889    -0.238458   -0.772708    0.028809  
      1.397520  2.602827  2.537425     0.000630    0.086977   -0.088508  
      1.432351  1.246333  1.262096    -0.152283    0.022840   -0.024621  
      3.876432  2.666391  2.537551     0.009175   -0.274273   -0.003834  
      3.911281  1.309929  1.262149    -0.142360   -0.338343    0.060199  
 
  14 f  =    0.164732 THz     1.035043 2PiTHz    5.494874 cm-1     0.681278 meV
             X         Y         Z           dx          dy          dz
      1.987805  1.939168  1.899695     0.539502   -0.297064    0.219128  
      3.321200  1.973573  1.899889     0.540509   -0.339540    0.095795  
      1.397520  2.602827  2.537425     0.179916   -0.113753    0.114754  
      1.432351  1.246333  1.262096     0.131118   -0.046819    0.042321  
      3.876432  2.666391  2.537551     0.180109   -0.136786    0.048829  
      3.911281  1.309929  1.262149     0.132024   -0.069823   -0.023802  
 
  15 f  =    0.064201 THz     0.403387 2PiTHz    2.141515 cm-1     0.265514 meV
             X         Y         Z           dx          dy          dz
      1.987805  1.939168  1.899695    -0.180882   -0.001882    0.667853  
      3.321200  1.973573  1.899889    -0.181472    0.024151    0.585715  
      1.397520  2.602827  2.537425    -0.044712    0.002111    0.196935  
      1.432351  1.246333  1.262096    -0.059452   -0.009924    0.209298  
      3.876432  2.666391  2.537551    -0.045146    0.016174    0.152734  
      3.911281  1.309929  1.262149    -0.059587    0.004283    0.165079  
 
  16 f/i=    0.429510 THz     2.698689 2PiTHz   14.326903 cm-1     1.776310 meV
             X         Y         Z           dx          dy          dz
      1.987805  1.939168  1.899695     0.185008    0.745523   -0.106452  
      3.321200  1.973573  1.899889     0.204869   -0.033276    0.256418  
      1.397520  2.602827  2.537425     0.115150    0.333107   -0.096274  
      1.432351  1.246333  1.262096    -0.013319    0.290856   -0.055061  
      3.876432  2.666391  2.537551     0.124918   -0.085270    0.098812  
      3.911281  1.309929  1.262149    -0.001801   -0.127329    0.140204  
 
  17 f/i=    0.781802 THz     4.912205 2PiTHz   26.078097 cm-1     3.233273 meV
             X         Y         Z           dx          dy          dz
      1.987805  1.939168  1.899695     0.034652   -0.248147   -0.438016  
      3.321200  1.973573  1.899889     0.026941    0.046050    0.542648  
      1.397520  2.602827  2.537425    -0.168713   -0.073648   -0.289887  
      1.432351  1.246333  1.262096     0.190694   -0.142351   -0.207008  
      3.876432  2.666391  2.537551    -0.172659    0.083610    0.237321  
      3.911281  1.309929  1.262149     0.186366    0.014873    0.320267  
 
  18 f/i=    1.474800 THz     9.266440 2PiTHz   49.194024 cm-1     6.099284 meV
             X         Y         Z           dx          dy          dz
      1.987805  1.939168  1.899695     0.065704   -0.035048    0.078634  
      3.321200  1.973573  1.899889     0.064177    0.030425   -0.080209  
      1.397520  2.602827  2.537425     0.022894    0.317733   -0.314957  
      1.432351  1.246333  1.262096     0.015698   -0.355406    0.401019  
      3.876432  2.666391  2.537551     0.022401    0.354301   -0.401830  
      3.911281  1.309929  1.262149     0.015013   -0.319273    0.314773  
 
 Eigenvectors after division by SQRT(mass)
 
 Eigenvectors and eigenvalues of the dynamical matrix
 ----------------------------------------------------
 
 
   1 f  =   94.626995 THz   594.558944 2PiTHz 3156.416696 cm-1   391.345934 meV
             X         Y         Z           dx          dy          dz
      1.987805  1.939168  1.899695    -0.000566    0.048258    0.045359  
      3.321200  1.973573  1.899889    -0.000871    0.048908    0.045977  
      1.397520  2.602827  2.537425     0.252420   -0.278745   -0.267949  
      1.432351  1.246333  1.262096    -0.245558   -0.300948   -0.276735  
      3.876432  2.666391  2.537551    -0.247151   -0.303306   -0.279064  
      3.911281  1.309929  1.262149     0.257307   -0.284112   -0.273201  
 
   2 f  =   93.777526 THz   589.221572 2PiTHz 3128.081458 cm-1   387.832811 meV
             X         Y         Z           dx          dy          dz
      1.987805  1.939168  1.899695     0.000050    0.048034    0.045129  
      3.321200  1.973573  1.899889     0.000547   -0.047399   -0.044550  
      1.397520  2.602827  2.537425     0.254523   -0.279612   -0.268814  
      1.432351  1.246333  1.262096    -0.252672   -0.308350   -0.283464  
      3.876432  2.666391  2.537551     0.245462    0.299889    0.275879  
      3.911281  1.309929  1.262149    -0.254947    0.280286    0.269528  
 
   3 f  =   91.885219 THz   577.331860 2PiTHz 3064.960913 cm-1   380.006858 meV
             X         Y         Z           dx          dy          dz
      1.987805  1.939168  1.899695     0.051437    0.000310   -0.000944  
      3.321200  1.973573  1.899889    -0.053270   -0.000614    0.000702  
      1.397520  2.602827  2.537425    -0.253160    0.295874    0.284003  
      1.432351  1.246333  1.262096    -0.227453   -0.295898   -0.272483  
      3.876432  2.666391  2.537551     0.239334    0.311563    0.287010  
      3.911281  1.309929  1.262149     0.263392   -0.307862   -0.295647  
 
   4 f  =   91.514689 THz   575.003752 2PiTHz 3052.601363 cm-1   378.474469 meV
             X         Y         Z           dx          dy          dz
      1.987805  1.939168  1.899695    -0.042418   -0.000068    0.000956  
      3.321200  1.973573  1.899889    -0.040059   -0.000773    0.000233  
      1.397520  2.602827  2.537425     0.266437   -0.313744   -0.301121  
      1.432351  1.246333  1.262096     0.240001    0.314918    0.289596  
      3.876432  2.666391  2.537551     0.233029    0.305529    0.281419  
      3.911281  1.309929  1.262149     0.251163   -0.296055   -0.284219  
 
   5 f  =   49.045391 THz   308.161283 2PiTHz 1635.978113 cm-1   202.835508 meV
             X         Y         Z           dx          dy          dz
      1.987805  1.939168  1.899695    -0.178968   -0.004579   -0.000020  
      3.321200  1.973573  1.899889     0.179024    0.004600    0.000041  
      1.397520  2.602827  2.537425     0.117070    0.153602    0.141708  
      1.432351  1.246333  1.262096     0.124785   -0.147616   -0.141809  
      3.876432  2.666391  2.537551    -0.124842    0.147779    0.141523  
      3.911281  1.309929  1.262149    -0.117300   -0.153976   -0.141659  
 
   6 f  =   42.589651 THz   267.598672 2PiTHz 1420.637811 cm-1   176.136703 meV
             X         Y         Z           dx          dy          dz
      1.987805  1.939168  1.899695     0.065105    0.001484   -0.000102  
      3.321200  1.973573  1.899889     0.065058    0.001787    0.000154  
      1.397520  2.602827  2.537425    -0.385582   -0.204499   -0.183325  
      1.432351  1.246333  1.262096    -0.396523    0.185251    0.183484  
      3.876432  2.666391  2.537551    -0.395324    0.184881    0.182748  
      3.911281  1.309929  1.262149    -0.386446   -0.205282   -0.183113  
 
   7 f  =   40.025148 THz   251.485422 2PiTHz 1335.095190 cm-1   165.530766 meV
             X         Y         Z           dx          dy          dz
      1.987805  1.939168  1.899695     0.082584    0.002292    0.000095  
      3.321200  1.973573  1.899889    -0.082586   -0.002141   -0.000038  
      1.397520  2.602827  2.537425     0.413799    0.144103    0.126940  
      1.432351  1.246333  1.262096     0.422185   -0.124067   -0.126962  
      3.876432  2.666391  2.537551    -0.421314    0.124372    0.125597  
      3.911281  1.309929  1.262149    -0.414971   -0.146170   -0.125971  
 
   8 f  =   35.952621 THz   225.896981 2PiTHz 1199.250317 cm-1   148.688143 meV
             X         Y         Z           dx          dy          dz
      1.987805  1.939168  1.899695     0.002244   -0.090545   -0.085157  
      3.321200  1.973573  1.899889    -0.002575    0.090557    0.084978  
      1.397520  2.602827  2.537425     0.377694    0.094991    0.080354  
      1.432351  1.246333  1.262096    -0.380330    0.074688    0.079860  
      3.876432  2.666391  2.537551     0.381301   -0.076025   -0.079056  
      3.911281  1.309929  1.262149    -0.376353   -0.095158   -0.078760  
 
   9 f  =   30.991991 THz   194.728422 2PiTHz 1033.781508 cm-1   128.172618 meV
             X         Y         Z           dx          dy          dz
      1.987805  1.939168  1.899695     0.000086   -0.000309    0.000305  
      3.321200  1.973573  1.899889    -0.000069   -0.000276    0.000235  
      1.397520  2.602827  2.537425    -0.007962    0.344458   -0.366149  
      1.432351  1.246333  1.262096     0.009297   -0.340701    0.362548  
      3.876432  2.666391  2.537551     0.007691   -0.340175    0.362896  
      3.911281  1.309929  1.262149    -0.009337    0.343499   -0.366143  
 
  10 f  =   28.179545 THz   177.057302 2PiTHz  939.968408 cm-1   116.541271 meV
             X         Y         Z           dx          dy          dz
      1.987805  1.939168  1.899695     0.001586   -0.060654    0.064258  
      3.321200  1.973573  1.899889     0.001086   -0.044523    0.047615  
      1.397520  2.602827  2.537425    -0.007161    0.340133   -0.360848  
      1.432351  1.246333  1.262096    -0.009764    0.343234   -0.364925  
      3.876432  2.666391  2.537551    -0.007861    0.291768   -0.310117  
      3.911281  1.309929  1.262149    -0.007278    0.288133   -0.306053  
 
  11 f  =   28.095244 THz   176.527624 2PiTHz  937.156437 cm-1   116.192631 meV
             X         Y         Z           dx          dy          dz
      1.987805  1.939168  1.899695    -0.001984    0.078924   -0.084538  
      3.321200  1.973573  1.899889     0.002338   -0.089114    0.094969  
      1.397520  2.602827  2.537425     0.007676   -0.241407    0.257790  
      1.432351  1.246333  1.262096     0.004305   -0.240224    0.256977  
      3.876432  2.666391  2.537551    -0.008768    0.301379   -0.319528  
      3.911281  1.309929  1.262149    -0.006340    0.302194   -0.320312  
 
  12 f  =   23.927764 THz   150.342578 2PiTHz  798.144285 cm-1    98.957315 meV
             X         Y         Z           dx          dy          dz
      1.987805  1.939168  1.899695     0.000763   -0.028487   -0.026325  
      3.321200  1.973573  1.899889     0.000592   -0.027577   -0.026990  
      1.397520  2.602827  2.537425     0.428219    0.180199    0.159161  
      1.432351  1.246333  1.262096    -0.435803    0.157993    0.158515  
      3.876432  2.666391  2.537551    -0.437770    0.157222    0.160466  
      3.911281  1.309929  1.262149     0.427792    0.178747    0.160556  
 
  13 f  =    0.375662 THz     2.360351 2PiTHz   12.530722 cm-1     1.553612 meV
             X         Y         Z           dx          dy          dz
      1.987805  1.939168  1.899695    -0.073791   -0.028697   -0.037098  
      3.321200  1.973573  1.899889    -0.068805   -0.222959    0.008313  
      1.397520  2.602827  2.537425     0.000630    0.086977   -0.088508  
      1.432351  1.246333  1.262096    -0.152283    0.022840   -0.024621  
      3.876432  2.666391  2.537551     0.009175   -0.274273   -0.003834  
      3.911281  1.309929  1.262149    -0.142360   -0.338343    0.060199  
 
  14 f  =    0.164732 THz     1.035043 2PiTHz    5.494874 cm-1     0.681278 meV
             X         Y         Z           dx          dy          dz
      1.987805  1.939168  1.899695     0.155670   -0.085716    0.063228  
      3.321200  1.973573  1.899889     0.155960   -0.097972    0.027641  
      1.397520  2.602827  2.537425     0.179916   -0.113753    0.114754  
      1.432351  1.246333  1.262096     0.131118   -0.046819    0.042321  
      3.876432  2.666391  2.537551     0.180109   -0.136786    0.048829  
      3.911281  1.309929  1.262149     0.132024   -0.069823   -0.023802  
 
  15 f  =    0.064201 THz     0.403387 2PiTHz    2.141515 cm-1     0.265514 meV
             X         Y         Z           dx          dy          dz
      1.987805  1.939168  1.899695    -0.052192   -0.000543    0.192704  
      3.321200  1.973573  1.899889    -0.052363    0.006969    0.169004  
      1.397520  2.602827  2.537425    -0.044712    0.002111    0.196935  
      1.432351  1.246333  1.262096    -0.059452   -0.009924    0.209298  
      3.876432  2.666391  2.537551    -0.045146    0.016174    0.152734  
      3.911281  1.309929  1.262149    -0.059587    0.004283    0.165079  
 
  16 f/i=    0.429510 THz     2.698689 2PiTHz   14.326903 cm-1     1.776310 meV
             X         Y         Z           dx          dy          dz
      1.987805  1.939168  1.899695     0.053383    0.215115   -0.030716  
      3.321200  1.973573  1.899889     0.059114   -0.009602    0.073988  
      1.397520  2.602827  2.537425     0.115150    0.333107   -0.096274  
      1.432351  1.246333  1.262096    -0.013319    0.290856   -0.055061  
      3.876432  2.666391  2.537551     0.124918   -0.085270    0.098812  
      3.911281  1.309929  1.262149    -0.001801   -0.127329    0.140204  
 
  17 f/i=    0.781802 THz     4.912205 2PiTHz   26.078097 cm-1     3.233273 meV
             X         Y         Z           dx          dy          dz
      1.987805  1.939168  1.899695     0.009999   -0.071601   -0.126386  
      3.321200  1.973573  1.899889     0.007774    0.013287    0.156577  
      1.397520  2.602827  2.537425    -0.168713   -0.073648   -0.289887  
      1.432351  1.246333  1.262096     0.190694   -0.142351   -0.207008  
      3.876432  2.666391  2.537551    -0.172659    0.083610    0.237321  
      3.911281  1.309929  1.262149     0.186366    0.014873    0.320267  
 
  18 f/i=    1.474800 THz     9.266440 2PiTHz   49.194024 cm-1     6.099284 meV
             X         Y         Z           dx          dy          dz
      1.987805  1.939168  1.899695     0.018958   -0.010113    0.022689  
      3.321200  1.973573  1.899889     0.018518    0.008779   -0.023144  
      1.397520  2.602827  2.537425     0.022894    0.317733   -0.314957  
      1.432351  1.246333  1.262096     0.015698   -0.355406    0.401019  
      3.876432  2.666391  2.537551     0.022401    0.354301   -0.401830  
      3.911281  1.309929  1.262149     0.015013   -0.319273    0.314773  
 
 Finite differences POTIM=  1.500000000000000E-002
     LOOP+:  cpu time   53.0541: real time   53.1298
    4ORBIT:  cpu time    0.0000: real time    0.0000

 total amount of memory used by VASP on root node   448278. kBytes
========================================================================

   base      :      30000. kBytes
   nonlr-proj:        690. kBytes
   fftplans  :     152823. kBytes
   grid      :     262438. kBytes
   one-center:          4. kBytes
   wavefun   :       2323. kBytes
 
  
  
 General timing and accounting informations for this job:
 ========================================================
  
                  Total CPU time used (sec):     1999.067
                            User time (sec):     1861.372
                          System time (sec):      137.695
                         Elapsed time (sec):     2019.149
  
                   Maximum memory used (kb):      648652.
                   Average memory used (kb):           0.
  
                          Minor page faults:      1914268
                          Major page faults:            0
                 Voluntary context switches:         7643
