       N       E                     dE             d eps       ncg     rms          rms(c)
DAV:   1     0.163451764180E+05    0.16345E+05   -0.76097E+05  2036   0.128E+03
DAV:   2    -0.522366882049E+03   -0.16868E+05   -0.16372E+05  2574   0.356E+02
DAV:   3    -0.263905914977E+04   -0.21167E+04   -0.21079E+04  2168   0.141E+02
DAV:   4    -0.269875420726E+04   -0.59695E+02   -0.59523E+02  2224   0.257E+01
DAV:   5    -0.270039868072E+04   -0.16445E+01   -0.16426E+01  2192   0.398E+00    0.141E+02
DAV:   6    -0.238928050722E+04    0.31112E+03   -0.13555E+03  2136   0.351E+01    0.652E+01
DAV:   7    -0.238765240620E+04    0.16281E+01   -0.41937E+01  2464   0.592E+00    0.247E+01
DAV:   8    -0.238686463928E+04    0.78777E+00   -0.31497E+00  2192   0.234E+00    0.979E+00
DAV:   9    -0.238686854543E+04   -0.39062E-02   -0.11589E+00  2208   0.141E+00    0.168E+00
DAV:  10    -0.238691215566E+04   -0.43610E-01   -0.12778E-01  2136   0.441E-01    0.945E-01
DAV:  11    -0.238692610403E+04   -0.13948E-01   -0.25952E-02  2120   0.218E-01    0.386E-01
DAV:  12    -0.238693688739E+04   -0.10783E-01   -0.10346E-02  2176   0.160E-01    0.171E-01
DAV:  13    -0.238694851586E+04   -0.11628E-01   -0.55601E-03  2128   0.116E-01    0.162E-01
DAV:  14    -0.238695382244E+04   -0.53066E-02   -0.27653E-03  2056   0.827E-02    0.644E-02
DAV:  15    -0.238695551468E+04   -0.16922E-02   -0.15826E-03  1928   0.706E-02    0.439E-02
DAV:  16    -0.238695604301E+04   -0.52833E-03   -0.53864E-04  2016   0.304E-02    0.480E-02
DAV:  17    -0.238695607304E+04   -0.30026E-04   -0.31188E-05  1408   0.692E-03
   1 F= -.24105645E+04 E0= -.24105645E+04  d E =-.241056E+04
       N       E                     dE             d eps       ncg     rms          rms(c)
DAV:   1    -0.238695612772E+04   -0.84703E-04   -0.23188E-05  1312   0.636E-03    0.378E-02
DAV:   2    -0.238695623558E+04   -0.10786E-03   -0.41067E-05  1320   0.963E-03    0.211E-02
DAV:   3    -0.238695634802E+04   -0.11244E-03   -0.17776E-05  1352   0.794E-03    0.807E-03
DAV:   4    -0.238695641543E+04   -0.67415E-04   -0.10911E-05  1368   0.731E-03
   2 F= -.24105649E+04 E0= -.24105649E+04  d E =-.337186E-03
       N       E                     dE             d eps       ncg     rms          rms(c)
DAV:   1    -0.238695648910E+04   -0.14109E-03   -0.40302E-05  1368   0.886E-03    0.336E-03
DAV:   2    -0.238695649813E+04   -0.90229E-05   -0.62443E-06  1384   0.305E-03
   3 F= -.24105650E+04 E0= -.24105650E+04  d E =-.780264E-04
       N       E                     dE             d eps       ncg     rms          rms(c)
DAV:   1    -0.238695651005E+04   -0.20940E-04   -0.54470E-05  1272   0.766E-03    0.389E-03
DAV:   2    -0.238695651653E+04   -0.64816E-05   -0.33764E-06  1288   0.211E-03
   4 F= -.24105650E+04 E0= -.24105650E+04  d E =-.168511E-04
       N       E                     dE             d eps       ncg     rms          rms(c)
DAV:   1    -0.238695653686E+04   -0.26817E-04   -0.83914E-05  1448   0.918E-03    0.259E-03
DAV:   2    -0.238695654037E+04   -0.35049E-05   -0.33941E-06  1272   0.210E-03
   5 F= -.24105650E+04 E0= -.24105650E+04  d E =-.211014E-04
       N       E                     dE             d eps       ncg     rms          rms(c)
DAV:   1    -0.238695655763E+04   -0.20770E-04   -0.12666E-04  1488   0.113E-02    0.299E-03
DAV:   2    -0.238695655962E+04   -0.19837E-05   -0.42445E-06  1200   0.235E-03
   6 F= -.24105650E+04 E0= -.24105650E+04  d E =-.172260E-04
       N       E                     dE             d eps       ncg     rms          rms(c)
DAV:   1    -0.238695657791E+04   -0.20273E-04   -0.17902E-04  1528   0.133E-02    0.358E-03
DAV:   2    -0.238695657912E+04   -0.12188E-05   -0.48776E-06  1144   0.256E-03
   7 F= -.24105650E+04 E0= -.24105650E+04  d E =-.163841E-04
       N       E                     dE             d eps       ncg     rms          rms(c)
DAV:   1    -0.238695660059E+04   -0.22688E-04   -0.24171E-04  1512   0.155E-02    0.411E-03
DAV:   2    -0.238695660144E+04   -0.84890E-06   -0.57449E-06  1056   0.278E-03
   8 F= -.24105650E+04 E0= -.24105650E+04  d E =-.174319E-04
